! Sonnet Data File
! From: sonnet Version : 18.53-Lite
! From Emgraph Data: 
! Data File Written: 04/08/2024 17:53:51
!< HDATE 04/08/2024 17:52:59
!< MDATE 04/08/2024 17:52:59
# GHZ S MA R 50.00000
0.100000000000000 0.9999139526346 179.77954187448 1.4731907762e-5 87.888364645592 1.4731907762e-5 87.888364645590 0.9999236505653 179.80816527031
0.120000000000000 0.9999096510838 179.73623946684 1.7600253569e-5 88.019390096978 1.7600253569e-5 88.019390096978 0.9999198504058 179.77049396781
0.140000000000000 0.9999053722854 179.69293894070 2.0468573808e-5 88.104334081740 2.0468573808e-5 88.104334081740 0.9999160707474 179.73282430132
0.160000000000000 0.9999011162037 179.64964027455 2.3336845330e-5 88.160168875707 2.3336845330e-5 88.160168875707 0.9999123115503 179.69515625259
0.180000000000000 0.9998968828019 179.60634344689 2.6205061831e-5 88.196435580367 2.6205061831e-5 88.196435580367 0.9999085727745 179.65748980335
0.200000000000000 0.9998926720427 179.56304843620 2.9073225565e-5 88.218909887654 2.9073225565e-5 88.218909887654 0.9999048543791 179.61982493536
0.220000000000000 0.9998884838882 179.51975522100 3.1941343522e-5 88.231292784064 3.1941343522e-5 88.231292784064 0.9999011563228 179.58216163040
0.240000000000000 0.9998843182996 179.47646377982 3.4809425491e-5 88.236065365893 3.4809425491e-5 88.236065365893 0.9998974785638 179.54449987023
0.260000000000000 0.9998801752372 179.43317409119 3.7677483019e-5 88.234953197634 3.7677483019e-5 88.234953197634 0.9998938210595 179.50683963665
0.280000000000000 0.9998760546609 179.38988613365 4.0545528798e-5 88.229193566324 4.0545528798e-5 88.229193566324 0.9998901837668 179.46918091145
0.300000000000000 0.9998719565297 179.34659988577 4.3413576307e-5 88.219696789591 4.3413576307e-5 88.219696789591 0.9998865666420 179.43152367645
0.320000000000000 0.9998678808019 179.30331532612 4.6281639578e-5 88.207147539855 4.6281639578e-5 88.207147539855 0.9998829696410 179.39386791346
0.340000000000000 0.9998638274351 179.26003243328 4.9149733052e-5 88.192070688862 4.9149733052e-5 88.192070688862 0.9998793927189 179.35621360431
0.360000000000000 0.9998597963860 179.21675118584 5.2017871477e-5 88.174875367362 5.2017871477e-5 88.174875367362 0.9998758358302 179.31856073084
0.380000000000000 0.9998557876109 179.17347156240 5.4886069840e-5 88.155885209263 5.4886069840e-5 88.155885209263 0.9998722989290 179.28090927490
0.400000000000000 0.9998518010651 179.13019354159 5.7754343318e-5 88.135359583283 5.7754343318e-5 88.135359583283 0.9998687819687 179.24325921836
0.420000000000000 0.9998478367033 179.08691710203 6.0622707248e-5 88.113508797079 6.0622707248e-5 88.113508797079 0.9998652849022 179.20561054308
0.440000000000000 0.9998438944794 179.04364222237 6.3491177096e-5 88.090505180034 6.3491177096e-5 88.090505180034 0.9998618076817 179.16796323095
0.460000000000000 0.9998399743466 179.00036888126 6.6359768444e-5 88.066491291697 6.6359768444e-5 88.066491291697 0.9998583502590 179.13031726386
0.480000000000000 0.9998360762574 178.95709705735 6.9228496974e-5 88.041586089560 6.9228496974e-5 88.041586089560 0.9998549125851 179.09267262373
0.500000000000000 0.9998322001636 178.91382672934 7.2097378456e-5 88.015889624496 7.2097378456e-5 88.015889624496 0.9998514946107 179.05502929245
0.520000000000000 0.9998283460162 178.87055787591 7.4966428743e-5 87.989486658205 7.4966428743e-5 87.989486658205 0.9998480962856 179.01738725196
0.540000000000000 0.9998245137655 178.82729047576 7.7835663762e-5 87.962449480771 7.7835663762e-5 87.962449480771 0.9998447175593 178.97974648420
0.560000000000000 0.9998207033611 178.78402450760 8.0705099511e-5 87.934840127342 8.0705099511e-5 87.934840127342 0.9998413583805 178.94210697111
0.580000000000000 0.9998169147519 178.74075995016 8.3574752056e-5 87.906712138304 8.3574752056e-5 87.906712138304 0.9998380186976 178.90446869465
0.600000000000000 0.9998131478860 178.69749678219 8.6444637523e-5 87.878111968988 8.6444637523e-5 87.878111968988 0.9998346984581 178.86683163679
0.620000000000000 0.9998094027109 178.65423498242 8.9314772103e-5 87.849080127710 8.9314772103e-5 87.849080127710 0.9998313976092 178.82919577952
0.640000000000000 0.9998056791733 178.61097452963 9.2185172044e-5 87.819652101323 9.2185172044e-5 87.819652101323 0.9998281160973 178.79156110482
0.660000000000000 0.9998019772191 178.56771540259 9.5055853652e-5 87.789859113166 9.5055853652e-5 87.789859113166 0.9998248538685 178.75392759470
0.680000000000000 0.9997982967937 178.52445758008 9.7926833289e-5 87.759728747786 9.7926833289e-5 87.759728747786 0.9998216108680 178.71629523117
0.700000000000000 0.9997946378416 178.48120104092 1.0079812737e-4 87.729285468979 1.0079812737e-4 87.729285468979 0.9998183870406 178.67866399626
0.720000000000000 0.9997910003065 178.43794576391 1.0366975237e-4 87.698551051800 1.0366975237e-4 87.698551051800 0.9998151823306 178.64103387200
0.740000000000000 0.9997873841317 178.39469172787 1.0654172482e-4 87.667544944789 1.0654172482e-4 87.667544944789 0.9998119966817 178.60340484044
0.760000000000000 0.9997837892594 178.35143891166 1.0941406129e-4 87.636284575186 1.0941406129e-4 87.636284575186 0.9998088300368 178.56577688365
0.780000000000000 0.9997802156315 178.30818729411 1.1228677842e-4 87.604785607371 1.1228677842e-4 87.604785607371 0.9998056823385 178.52814998369
0.800000000000000 0.9997766631888 178.26493685410 1.1515989288e-4 87.573062162647 1.1515989288e-4 87.573062162647 0.9998025535287 178.49052412264
0.820000000000000 0.9997731318716 178.22168757050 1.1803342142e-4 87.541127006987 1.1803342142e-4 87.541127006987 0.9997994435488 178.45289928259
0.840000000000000 0.9997696216194 178.17843942221 1.2090738082e-4 87.508991712030 1.2090738082e-4 87.508991712030 0.9997963523395 178.41527544567
0.860000000000000 0.9997661323711 178.13519238812 1.2378178793e-4 87.476666793686 1.2378178793e-4 87.476666793686 0.9997932798412 178.37765259396
0.880000000000000 0.9997626640646 178.09194644715 1.2665665963e-4 87.444161831906 1.2665665963e-4 87.444161831906 0.9997902259933 178.34003070962
0.900000000000000 0.9997592166375 178.04870157824 1.2953201286e-4 87.411485574523 1.2953201286e-4 87.411485574523 0.9997871907350 178.30240977477
0.920000000000000 0.9997557900264 178.00545776032 1.3240786463e-4 87.378646027587 1.3240786463e-4 87.378646027587 0.9997841740048 178.26478977157
0.940000000000000 0.9997523841672 177.96221497236 1.3528423198e-4 87.345650534209 1.3528423198e-4 87.345650534209 0.9997811757407 178.22717068217
0.960000000000000 0.9997489989952 177.91897319331 1.3816113200e-4 87.312505843574 1.3816113200e-4 87.312505843574 0.9997781958799 178.18955248876
0.980000000000000 0.9997456344450 177.87573240217 1.4103858184e-4 87.279218171519 1.4103858184e-4 87.279218171519 0.9997752343594 178.15193517352
1.000000000000000 0.9997422904502 177.83249257793 1.4391659871e-4 87.245793253877 1.4391659871e-4 87.245793253877 0.9997722911153 178.11431871864
1.020000000000000 0.9997389669441 177.78925369960 1.4679519984e-4 87.212236393548 1.4679519984e-4 87.212236393548 0.9997693660833 178.07670310635
1.040000000000000 0.9997356638591 177.74601574620 1.4967440256e-4 87.178552502161 1.4967440256e-4 87.178552502161 0.9997664591986 178.03908831884
1.060000000000000 0.9997323811267 177.70277869676 1.5255422420e-4 87.144746137030 1.5255422420e-4 87.144746137030 0.9997635703955 178.00147433837
1.080000000000000 0.9997291186781 177.65954253034 1.5543468218e-4 87.110821534012 1.5543468218e-4 87.110821534012 0.9997606996082 177.96386114718
1.100000000000000 0.9997258764434 177.61630722601 1.5831579394e-4 87.076782636794 1.5831579394e-4 87.076782636794 0.9997578467700 177.92624872752
1.120000000000000 0.9997226543523 177.57307276283 1.6119757701e-4 87.042633123046 1.6119757701e-4 87.042633123046 0.9997550118137 177.88863706166
1.140000000000000 0.9997194523335 177.52983911990 1.6408004894e-4 87.008376427830 1.6408004894e-4 87.008376427830 0.9997521946716 177.85102613188
1.160000000000000 0.9997162703153 177.48660627632 1.6696322734e-4 86.974015764593 1.6696322734e-4 86.974015764593 0.9997493952755 177.81341592048
1.180000000000000 0.9997131082250 177.44337421122 1.6984712987e-4 86.939554144029 1.6984712987e-4 86.939554144029 0.9997466135564 177.77580640976
1.200000000000000 0.9997099659894 177.40014290371 1.7273177426e-4 86.904994391061 1.7273177426e-4 86.904994391061 0.9997438494449 177.73819758204
1.220000000000000 0.9997068435345 177.35691233296 1.7561717827e-4 86.870339160158 1.7561717827e-4 86.870339160158 0.9997411028711 177.70058941964
1.240000000000000 0.9997037407856 177.31368247811 1.7850335971e-4 86.835590949168 1.7850335971e-4 86.835590949168 0.9997383737644 177.66298190491
1.260000000000000 0.9997006576673 177.27045331835 1.8139033647e-4 86.800752111842 1.8139033647e-4 86.800752111842 0.9997356620536 177.62537502021
1.280000000000000 0.9996975941036 177.22722483285 1.8427812646e-4 86.765824869184 1.8427812646e-4 86.765824869184 0.9997329676672 177.58776874789
1.300000000000000 0.9996945500176 177.18399700083 1.8716674767e-4 86.730811319757 1.8716674767e-4 86.730811319757 0.9997302905328 177.55016307034
1.320000000000000 0.9996915253318 177.14076980150 1.9005621812e-4 86.695713449054 1.9005621812e-4 86.695713449054 0.9997276305778 177.51255796995
1.340000000000000 0.9996885199680 177.09754321408 1.9294655590e-4 86.660533138028 1.9294655590e-4 86.660533138028 0.9997249877286 177.47495342911
1.360000000000000 0.9996855338473 177.05431721783 1.9583777913e-4 86.625272170881 1.9583777913e-4 86.625272170881 0.9997223619114 177.43734943025
1.380000000000000 0.9996825668900 177.01109179200 1.9872990601e-4 86.589932242164 1.9872990601e-4 86.589932242164 0.9997197530518 177.39974595579
1.400000000000000 0.9996796190160 176.96786691586 2.0162295478e-4 86.554514963281 2.0162295478e-4 86.554514963281 0.9997171610746 177.36214298818
1.420000000000000 0.9996766901440 176.92464256871 2.0451694373e-4 86.519021868440 2.0451694373e-4 86.519021868440 0.9997145859042 177.32454050986
1.440000000000000 0.9996737801925 176.88141872983 2.0741189120e-4 86.483454420108 2.0741189120e-4 86.483454420108 0.9997120274646 177.28693850330
1.460000000000000 0.9996708890790 176.83819537856 2.1030781561e-4 86.447814014020 2.1030781561e-4 86.447814014020 0.9997094856790 177.24933695098
1.480000000000000 0.9996680167204 176.79497249422 2.1320473539e-4 86.412101983787 2.1320473539e-4 86.412101983787 0.9997069604700 177.21173583539
1.500000000000000 0.9996651630327 176.75175005616 2.1610266907e-4 86.376319605126 2.1610266907e-4 86.376319605126 0.9997044517600 177.17413513904
1.520000000000000 0.9996623279317 176.70852804373 2.1900163519e-4 86.340468099771 2.1900163519e-4 86.340468099771 0.9997019594704 177.13653484443
1.540000000000000 0.9996595113319 176.66530643631 2.2190165237e-4 86.304548639065 2.2190165237e-4 86.304548639065 0.9996994835223 177.09893493409
1.560000000000000 0.9996567131475 176.62208521329 2.2480273928e-4 86.268562347288 2.2480273928e-4 86.268562347288 0.9996970238363 177.06133539058
1.580000000000000 0.9996539332918 176.57886435408 2.2770491464e-4 86.232510304729 2.2770491464e-4 86.232510304729 0.9996945803321 177.02373619644
1.600000000000000 0.9996511716776 176.53564383809 2.3060819723e-4 86.196393550524 2.3060819723e-4 86.196393550524 0.9996921529293 176.98613733423
1.620000000000000 0.9996484282168 176.49242364475 2.3351260587e-4 86.160213085291 2.3351260587e-4 86.160213085291 0.9996897415467 176.94853878655
1.640000000000000 0.9996457028208 176.44920375352 2.3641815945e-4 86.123969873570 2.3641815945e-4 86.123969873570 0.9996873461024 176.91094053597
1.660000000000000 0.9996429954000 176.40598414386 2.3932487690e-4 86.087664846083 2.3932487690e-4 86.087664846083 0.9996849665142 176.87334256512
1.680000000000000 0.9996403058644 176.36276479525 2.4223277722e-4 86.051298901842 2.4223277722e-4 86.051298901842 0.9996826026993 176.83574485659
1.700000000000000 0.9996376341233 176.31954568718 2.4514187946e-4 86.014872910101 2.4514187946e-4 86.014872910101 0.9996802545743 176.79814739304
1.720000000000000 0.9996349800850 176.27632679916 2.4805220271e-4 85.978387712174 2.4805220271e-4 85.978387712174 0.9996779220551 176.76055015710
1.740000000000000 0.9996323436575 176.23310811072 2.5096376613e-4 85.941844123130 2.5096376613e-4 85.941844123130 0.9996756050574 176.72295313143
1.760000000000000 0.9996297247478 176.18988960139 2.5387658892e-4 85.905242933370 2.5387658892e-4 85.905242933370 0.9996733034960 176.68535629870
1.780000000000000 0.9996271232623 176.14667125073 2.5679069037e-4 85.868584910100 2.5679069037e-4 85.868584910100 0.9996710172853 176.64775964159
1.800000000000000 0.9996245391069 176.10345303830 2.5970608977e-4 85.831870798707 2.5970608977e-4 85.831870798707 0.9996687463391 176.61016314281
1.820000000000000 0.9996219721864 176.06023494370 2.6262280652e-4 85.795101324040 2.6262280652e-4 85.795101324040 0.9996664905708 176.57256678506
1.840000000000000 0.9996194224054 176.01701694653 2.6554086004e-4 85.758277191615 2.6554086004e-4 85.758277191615 0.9996642498930 176.53497055107
1.860000000000000 0.9996168896673 175.97379902639 2.6846026980e-4 85.721399088732 2.6846026980e-4 85.721399088732 0.9996620242179 176.49737442357
1.880000000000000 0.9996143738753 175.93058116292 2.7138105537e-4 85.684467685533 2.7138105537e-4 85.684467685533 0.9996598134572 176.45977838532
1.900000000000000 0.9996118749315 175.88736333577 2.7430323632e-4 85.647483635987 2.7430323632e-4 85.647483635987 0.9996576175219 176.42218241907
1.920000000000000 0.9996093927375 175.84414552461 2.7722683230e-4 85.610447578810 2.7722683230e-4 85.610447578810 0.9996554363225 176.38458650761
1.940000000000000 0.9996069271942 175.80092770910 2.8015186304e-4 85.573360138337 2.8015186304e-4 85.573360138337 0.9996532697690 176.34699063373
1.960000000000000 0.9996044782019 175.75770986894 2.8307834828e-4 85.536221925333 2.8307834828e-4 85.536221925333 0.9996511177709 176.30939478023
1.980000000000000 0.9996020456600 175.71449198385 2.8600630785e-4 85.499033537762 2.8600630785e-4 85.499033537762 0.9996489802369 176.27179892992
2.000000000000000 0.9995996294674 175.67127403355 2.8893576161e-4 85.461795561503 2.8893576161e-4 85.461795561503 0.9996468570755 176.23420306565
2.020000000000000 0.9995972295222 175.62805599777 2.9186672950e-4 85.424508571029 2.9186672950e-4 85.424508571029 0.9996447481943 176.19660717025
2.040000000000000 0.9995948457218 175.58483785628 2.9479923150e-4 85.387173130042 2.9479923150e-4 85.387173130042 0.9996426535007 176.15901122659
2.060000000000000 0.9995924779630 175.54161958886 2.9773328765e-4 85.349789792078 2.9773328765e-4 85.349789792078 0.9996405729012 176.12141521753
2.080000000000000 0.9995901261418 175.49840117528 3.0066891805e-4 85.312359101067 3.0066891805e-4 85.312359101067 0.9996385063021 176.08381912596
2.100000000000000 0.9995877901538 175.45518259536 3.0360614285e-4 85.274881591868 3.0360614285e-4 85.274881591868 0.9996364536088 176.04622293479
2.120000000000000 0.9995854698935 175.41196382891 3.0654498226e-4 85.237357790778 3.0654498226e-4 85.237357790778 0.9996344147265 176.00862662692
2.140000000000000 0.9995831652549 175.36874485577 3.0948545655e-4 85.199788215999 3.0948545655e-4 85.199788215999 0.9996323895596 175.97103018528
2.160000000000000 0.9995808761315 175.32552565581 3.1242758602e-4 85.162173378093 3.1242758602e-4 85.162173378093 0.9996303780120 175.93343359282
2.180000000000000 0.9995786024158 175.28230620887 3.1537139107e-4 85.124513780403 3.1537139107e-4 85.124513780403 0.9996283799872 175.89583683248
2.200000000000000 0.9995763439998 175.23908649487 3.1831689213e-4 85.086809919457 3.1831689213e-4 85.086809919457 0.9996263953880 175.85823988725
2.220000000000000 0.9995741007748 175.19586649368 3.2126410969e-4 85.049062285345 3.2126410969e-4 85.049062285345 0.9996244241166 175.82064274009
2.240000000000000 0.9995718726313 175.15264618525 3.2421306428e-4 85.011271362083 3.2421306428e-4 85.011271362083 0.9996224660749 175.78304537402
2.260000000000000 0.9995696594594 175.10942554949 3.2716377653e-4 84.973437627948 3.2716377653e-4 84.973437627948 0.9996205211641 175.74544777203
2.280000000000000 0.9995674611481 175.06620456636 3.3011626708e-4 84.935561555802 3.3011626708e-4 84.935561555802 0.9996185892848 175.70784991716
2.300000000000000 0.9995652775862 175.02298321583 3.3307055666e-4 84.897643613403 3.3307055666e-4 84.897643613403 0.9996166703372 175.67025179245
2.320000000000000 0.9995631086613 174.97976147789 3.3602666603e-4 84.859684263686 3.3602666603e-4 84.859684263686 0.9996147642208 175.63265338094
2.340000000000000 0.9995609542608 174.93653933254 3.3898461603e-4 84.821683965048 3.3898461603e-4 84.821683965048 0.9996128708346 175.59505466570
2.360000000000000 0.9995588142710 174.89331675978 3.4194442754e-4 84.783643171602 3.4194442754e-4 84.783643171602 0.9996109900773 175.55745562983
2.380000000000000 0.9995566885779 174.85009373967 3.4490612152e-4 84.745562333427 3.4490612152e-4 84.745562333427 0.9996091218466 175.51985625640
2.400000000000000 0.9995545770666 174.80687025225 3.4786971895e-4 84.707441896807 3.4786971895e-4 84.707441896807 0.9996072660401 175.48225652854
2.420000000000000 0.9995524796215 174.76364627759 3.5083524090e-4 84.669282304451 3.5083524090e-4 84.669282304451 0.9996054225546 175.44465642937
2.440000000000000 0.9995503961265 174.72042179577 3.5380270848e-4 84.631083995709 3.5380270848e-4 84.631083995709 0.9996035912864 175.40705594203
2.460000000000000 0.9995483264646 174.67719678690 3.5677214286e-4 84.592847406771 3.5677214286e-4 84.592847406771 0.9996017721313 175.36945504967
2.480000000000000 0.9995462705182 174.63397123110 3.5974356528e-4 84.554572970866 3.5974356528e-4 84.554572970866 0.9995999649846 175.33185373546
2.500000000000000 0.9995442281692 174.59074510850 3.6271699701e-4 84.516261118440 3.6271699701e-4 84.516261118440 0.9995981697409 175.29425198258
2.520000000000000 0.9995421992986 174.54751839926 3.6569245941e-4 84.477912277335 3.6569245941e-4 84.477912277335 0.9995963862945 175.25664977423
2.540000000000000 0.9995401837867 174.50429108354 3.6866997387e-4 84.439526872954 3.6866997387e-4 84.439526872953 0.9995946145389 175.21904709362
2.560000000000000 0.9995381815133 174.46106314154 3.7164956184e-4 84.401105328415 3.7164956184e-4 84.401105328415 0.9995928543672 175.18144392398
2.580000000000000 0.9995361923576 174.41783455346 3.7463124485e-4 84.362648064716 3.7463124485e-4 84.362648064716 0.9995911056720 175.14384024855
2.600000000000000 0.9995342161977 174.37460529952 3.7761504447e-4 84.324155500865 3.7761504447e-4 84.324155500865 0.9995893683452 175.10623605058
2.620000000000000 0.9995322529114 174.33137535997 3.8060098232e-4 84.285628054026 3.8060098232e-4 84.285628054026 0.9995876422785 175.06863131334
2.640000000000000 0.9995303023758 174.28814471505 3.8358908010e-4 84.247066139647 3.8358908010e-4 84.247066139647 0.9995859273626 175.03102602013
2.660000000000000 0.9995283644672 174.24491334504 3.8657935954e-4 84.208470171590 3.8657935954e-4 84.208470171590 0.9995842234880 174.99342015423
2.680000000000000 0.9995264390612 174.20168123024 3.8957184244e-4 84.169840562245 3.8957184244e-4 84.169840562245 0.9995825305445 174.95581369896
2.700000000000000 0.9995245260329 174.15844835096 3.9256655067e-4 84.131177722651 3.9256655067e-4 84.131177722651 0.9995808484215 174.91820663766
2.720000000000000 0.9995226252566 174.11521468751 3.9556350614e-4 84.092482062599 3.9556350614e-4 84.092482062599 0.9995791770077 174.88059895367
2.740000000000000 0.9995207366060 174.07198022025 3.9856273083e-4 84.053753990744 3.9856273083e-4 84.053753990744 0.9995775161914 174.84299063034
2.760000000000000 0.9995188599539 174.02874492954 4.0156424676e-4 84.014993914698 4.0156424676e-4 84.014993914698 0.9995758658603 174.80538165105
2.780000000000000 0.9995169951729 173.98550879576 4.0456807603e-4 83.976202241130 4.0456807603e-4 83.976202241130 0.9995742259016 174.76777199919
2.800000000000000 0.9995151421344 173.94227179930 4.0757424077e-4 83.937379375859 4.0757424077e-4 83.937379375859 0.9995725962019 174.73016165817
2.820000000000000 0.9995133007094 173.89903392058 4.1058276319e-4 83.898525723937 4.1058276319e-4 83.898525723937 0.9995709766473 174.69255061140
2.840000000000000 0.9995114707684 173.85579514003 4.1359366556e-4 83.859641689735 4.1359366556e-4 83.859641689735 0.9995693671234 174.65493884232
2.860000000000000 0.9995096521808 173.81255543812 4.1660697018e-4 83.820727677027 4.1660697018e-4 83.820727677027 0.9995677675152 174.61732633438
2.880000000000000 0.9995078448156 173.76931479529 4.1962269943e-4 83.781784089060 4.1962269943e-4 83.781784089060 0.9995661777072 174.57971307104
2.900000000000000 0.9995060485413 173.72607319205 4.2264087576e-4 83.742811328633 4.2264087576e-4 83.742811328633 0.9995645975835 174.54209903578
2.920000000000000 0.9995042632253 173.68283060889 4.2566152163e-4 83.703809798166 4.2566152163e-4 83.703809798166 0.9995630270273 174.50448421210
2.940000000000000 0.9995024887346 173.63958702635 4.2868465961e-4 83.664779899768 4.2868465961e-4 83.664779899768 0.9995614659218 174.46686858351
2.960000000000000 0.9995007249355 173.59634242496 4.3171031229e-4 83.625722035302 4.3171031229e-4 83.625722035302 0.9995599141491 174.42925213354
2.980000000000000 0.9994989716938 173.55309678528 4.3473850234e-4 83.586636606446 4.3473850234e-4 83.586636606446 0.9995583715912 174.39163484572
3.000000000000000 0.9994972288742 173.50985008789 4.3776925247e-4 83.547524014752 4.3776925247e-4 83.547524014752 0.9995568381293 174.35401670362
3.020000000000000 0.9994954963411 173.46660231339 4.4080258547e-4 83.508384661707 4.4080258547e-4 83.508384661707 0.9995553136443 174.31639769080
3.040000000000000 0.9994937739581 173.42335344239 4.4383852416e-4 83.469218948785 4.4383852416e-4 83.469218948785 0.9995537980164 174.27877779085
3.060000000000000 0.9994920615883 173.38010345552 4.4687709143e-4 83.430027277498 4.4687709143e-4 83.430027277498 0.9995522911253 174.24115698738
3.080000000000000 0.9994903590938 173.33685233344 4.4991831024e-4 83.390810049450 4.4991831024e-4 83.390810049450 0.9995507928501 174.20353526401
3.100000000000000 0.9994886663363 173.29360005682 4.5296220358e-4 83.351567666383 4.5296220358e-4 83.351567666383 0.9995493030696 174.16591260436
3.120000000000000 0.9994869831768 173.25034660634 4.5600879452e-4 83.312300530225 4.5600879452e-4 83.312300530225 0.9995478216619 174.12828899210
3.140000000000000 0.9994853094757 173.20709196271 4.5905810617e-4 83.273009043134 4.5905810617e-4 83.273009043134 0.9995463485046 174.09066441088
3.160000000000000 0.9994836450924 173.16383610666 4.6211016171e-4 83.233693607539 4.6211016171e-4 83.233693607539 0.9995448834747 174.05303884439
3.180000000000000 0.9994819898861 173.12057901894 4.6516498438e-4 83.194354626183 4.6516498438e-4 83.194354626183 0.9995434264488 174.01541227632
3.200000000000000 0.9994803437150 173.07732068030 4.6822259746e-4 83.154992502164 4.6822259746e-4 83.154992502164 0.9995419773028 173.97778469039
3.220000000000000 0.9994787064368 173.03406107154 4.7128302430e-4 83.115607638968 4.7128302430e-4 83.115607638968 0.9995405359124 173.94015607033
3.240000000000000 0.9994770779084 172.99080017344 4.7434628830e-4 83.076200440510 4.7434628830e-4 83.076200440510 0.9995391021524 173.90252639988
3.260000000000000 0.9994754579863 172.94753796683 4.7741241291e-4 83.036771311166 4.7741241291e-4 83.036771311166 0.9995376758972 173.86489566279
3.280000000000000 0.9994738465261 172.90427443255 4.8048142167e-4 82.997320655809 4.8048142167e-4 82.997320655809 0.9995362570208 173.82726384286
3.300000000000000 0.9994722433828 172.86100955146 4.8355333813e-4 82.957848879837 4.8355333813e-4 82.957848879837 0.9995348453966 173.78963092387
3.320000000000000 0.9994706484108 172.81774330444 4.8662818593e-4 82.918356389209 4.8662818593e-4 82.918356389209 0.9995334408974 173.75199688963
3.340000000000000 0.9994690614637 172.77447567238 4.8970598876e-4 82.878843590471 4.8970598876e-4 82.878843590471 0.9995320433954 173.71436172396
3.360000000000000 0.9994674823946 172.73120663619 4.9278677034e-4 82.839310890783 4.9278677034e-4 82.839310890783 0.9995306527627 173.67672541070
3.380000000000000 0.9994659110559 172.68793617681 4.9587055449e-4 82.799758697954 4.9587055449e-4 82.799758697954 0.9995292688703 173.63908793372
3.400000000000000 0.9994643472993 172.64466427520 4.9895736506e-4 82.760187420457 4.9895736506e-4 82.760187420457 0.9995278915891 173.60144927688
3.420000000000000 0.9994627909759 172.60139091233 5.0204722595e-4 82.720597467463 5.0204722595e-4 82.720597467463 0.9995265207892 173.56380942407
3.440000000000000 0.9994612419361 172.55811606919 5.0514016114e-4 82.680989248863 5.0514016114e-4 82.680989248863 0.9995251563405 173.52616835920
3.460000000000000 0.9994597000296 172.51483972679 5.0823619464e-4 82.641363175286 5.0823619464e-4 82.641363175286 0.9995237981120 173.48852606619
3.480000000000000 0.9994581651055 172.47156186616 5.1133535053e-4 82.601719658129 5.1133535053e-4 82.601719658129 0.9995224459724 173.45088252899
3.500000000000000 0.9994566370122 172.42828246837 5.1443765295e-4 82.562059109573 5.1443765295e-4 82.562059109573 0.9995210997899 173.41323773153
3.520000000000000 0.9994551155977 172.38500151446 5.1754312609e-4 82.522381942604 5.1754312609e-4 82.522381942604 0.9995197594320 173.37559165780
3.540000000000000 0.9994536007089 172.34171898555 5.2065179419e-4 82.482688571034 5.2065179419e-4 82.482688571034 0.9995184247659 173.33794429177
3.560000000000000 0.9994520921924 172.29843486273 5.2376368154e-4 82.442979409520 5.2376368154e-4 82.442979409520 0.9995170956582 173.30029561747
3.580000000000000 0.9994505898940 172.25514912713 5.2687881252e-4 82.403254873578 5.2687881252e-4 82.403254873578 0.9995157719748 173.26264561889
3.600000000000000 0.9994490936588 172.21186175992 5.2999721151e-4 82.363515379605 5.2999721151e-4 82.363515379605 0.9995144535813 173.22499428009
3.620000000000000 0.9994476033314 172.16857274224 5.3311890300e-4 82.323761344892 5.3311890300e-4 82.323761344892 0.9995131403428 173.18734158511
3.640000000000000 0.9994461187557 172.12528205530 5.3624391150e-4 82.283993187644 5.3624391150e-4 82.283993187644 0.9995118321236 173.14968751803
3.660000000000000 0.9994446397749 172.08198968030 5.3937226159e-4 82.244211326987 5.3937226159e-4 82.244211326987 0.9995105287878 173.11203206293
3.680000000000000 0.9994431662314 172.03869559848 5.4250397790e-4 82.204416182991 5.4250397790e-4 82.204416182991 0.9995092301988 173.07437520391
3.700000000000000 0.9994416979673 171.99539979107 5.4563908510e-4 82.164608176679 5.4563908510e-4 82.164608176679 0.9995079362195 173.03671692510
3.720000000000000 0.9994402348239 171.95210223936 5.4877760795e-4 82.124787730040 5.4877760795e-4 82.124787730040 0.9995066467124 172.99905721062
3.740000000000000 0.9994387766416 171.90880292462 5.5191957122e-4 82.084955266043 5.5191957122e-4 82.084955266043 0.9995053615392 172.96139604465
3.760000000000000 0.9994373232605 171.86550182817 5.5506499978e-4 82.045111208648 5.5506499978e-4 82.045111208648 0.9995040805615 172.92373341133
3.780000000000000 0.9994358745199 171.82219893135 5.5821391852e-4 82.005255982817 5.5821391852e-4 82.005255982817 0.9995028036401 172.88606929487
3.800000000000000 0.9994344302585 171.77889421548 5.6136635239e-4 81.965390014526 5.6136635239e-4 81.965390014526 0.9995015306352 172.84840367947
3.820000000000000 0.9994329903142 171.73558766196 5.6452232640e-4 81.925513730773 5.6452232640e-4 81.925513730773 0.9995002614068 172.81073654934
3.840000000000000 0.9994315545245 171.69227925217 5.6768186562e-4 81.885627559591 5.6768186562e-4 81.885627559591 0.9994989958141 172.77306788873
3.860000000000000 0.9994301227261 171.64896896751 5.7084499516e-4 81.845731930053 5.7084499516e-4 81.845731930053 0.9994977337158 172.73539768189
3.880000000000000 0.9994286947550 171.60565678943 5.7401174019e-4 81.805827272283 5.7401174019e-4 81.805827272283 0.9994964749704 172.69772591309
3.900000000000000 0.9994272704467 171.56234269937 5.7718212592e-4 81.765914017465 5.7718212592e-4 81.765914017465 0.9994952194355 172.66005256663
3.920000000000000 0.9994258496360 171.51902667881 5.8035617764e-4 81.725992597849 5.8035617764e-4 81.725992597849 0.9994939669683 172.62237762680
3.940000000000000 0.9994244321569 171.47570870924 5.8353392066e-4 81.686063446759 5.8353392066e-4 81.686063446759 0.9994927174257 172.58470107794
3.960000000000000 0.9994230178431 171.43238877218 5.8671538038e-4 81.646126998599 5.8671538038e-4 81.646126998600 0.9994914706637 172.54702290438
3.980000000000000 0.9994216065273 171.38906684915 5.8990058221e-4 81.606183688862 5.8990058221e-4 81.606183688862 0.9994902265382 172.50934309048
4.000000000000000 0.9994201980417 171.34574292171 5.9308955164e-4 81.566233954131 5.9308955164e-4 81.566233954131 0.9994889849042 172.47166162062
4.020000000000000 0.9994187922180 171.30241697145 5.9628231421e-4 81.526278232089 5.9628231421e-4 81.526278232089 0.9994877456165 172.43397847920
4.040000000000000 0.9994173888870 171.25908897996 5.9947889550e-4 81.486316961525 5.9947889550e-4 81.486316961525 0.9994865085292 172.39629365061
4.060000000000000 0.9994159878790 171.21575892885 6.0267932116e-4 81.446350582332 6.0267932116e-4 81.446350582332 0.9994852734960 172.35860711929
4.080000000000000 0.9994145890236 171.17242679977 6.0588361686e-4 81.406379535521 6.0588361686e-4 81.406379535521 0.9994840403700 172.32091886969
4.100000000000001 0.9994131921498 171.12909257437 6.0909180835e-4 81.366404263216 6.0909180835e-4 81.366404263216 0.9994828090037 172.28322888626
4.120000000000000 0.9994117970861 171.08575623435 6.1230392142e-4 81.326425208664 6.1230392142e-4 81.326425208664 0.9994815792494 172.24553715349