! Sonnet Data File
! From: sonnet Version : 18.53-Lite
! From Emgraph Data: 
! Data File Written: 04/08/2024 17:20:33
!< HDATE 04/08/2024 17:19:59
!< MDATE 04/08/2024 17:19:59
# GHZ S MA R 50.00000
0.100000000000000 2.5848532302e-4 66.912124901210 0.9998719960271 -0.944343536683 0.9998719960271 -0.944343536684 2.5950329388e-4 66.330604688082
0.120000000000000 2.9105656852e-4 68.383134749316 0.9998610318509 -1.132371242725 0.9998610318509 -1.132371242725 2.9239939855e-4 67.609904853789
0.140000000000000 3.2354587786e-4 69.537995378166 0.9998501435850 -1.320386535985 0.9998501435850 -1.320386535985 3.2524567013e-4 68.575482812133
0.160000000000000 3.5591019002e-4 70.465591537217 0.9998393321722 -1.508389767167 0.9998393321722 -1.508389767167 3.5799985597e-4 69.315142147300
0.180000000000000 3.8812304176e-4 71.224756020711 0.9998285984128 -1.696381283508 0.9998285984128 -1.696381283508 3.9063580843e-4 69.886976312037
0.200000000000000 4.2016805619e-4 71.855889170436 0.9998179429681 -1.884361428572 0.9998179429681 -1.884361428572 4.2313714591e-4 70.330869797021
0.220000000000000 4.5203525606e-4 72.387606107312 0.9998073663631 -2.072330542060 0.9998073663631 -2.072330542060 4.5549366766e-4 70.675071284762
0.240000000000000 4.8371887287e-4 72.840715230772 0.9997968689905 -2.260288959624 0.9997968689905 -2.260288959624 4.8769922549e-4 70.940124999575
0.260000000000000 5.1521598990e-4 73.230693846085 0.9997864511139 -2.448237012699 0.9997864511139 -2.448237012699 5.1975040713e-4 71.141315681735
0.280000000000000 5.4652567122e-4 73.569281407327 0.9997761128711 -2.636175028329 0.9997761128711 -2.636175028329 5.5164569239e-4 71.290241455860
0.300000000000000 5.7764838476e-4 73.865535469833 0.9997658542785 -2.824103329011 0.9997658542785 -2.824103329011 5.8338489536e-4 71.395855941883
0.320000000000000 6.0858560953e-4 74.126549865696 0.9997556752339 -3.012022232551 0.9997556752339 -3.012022232551 6.1496878564e-4 71.465176829381
0.340000000000000 6.3933956145e-4 74.357954446056 0.9997455755208 -3.199932051911 0.9997455755208 -3.199932051911 6.4639882490e-4 71.503778827531
0.360000000000000 6.6991299762e-4 74.564269980017 0.9997355548119 -3.387833095087 0.9997355548119 -3.387833095087 6.7767697960e-4 71.516143673751
0.380000000000000 7.0030907374e-4 74.749164835806 0.9997256126732 -3.575725664975 0.9997256126732 -3.575725664975 7.0880558544e-4 71.505913231589
0.400000000000000 7.3053123827e-4 74.915643698286 0.9997157485673 -3.763610059260 0.9997157485673 -3.763610059260 7.3978724731e-4 71.476075541597
0.420000000000000 7.6058315242e-4 75.066188401229 0.9997059618580 -3.951486570307 0.9997059618580 -3.951486570307 7.7062476449e-4 71.429103639558
0.440000000000000 7.9046862877e-4 75.202864455815 0.9996962518137 -4.139355485061 0.9996962518137 -4.139355485061 8.0132107375e-4 71.367060542166
0.460000000000000 8.2019158337e-4 75.327402633431 0.9996866176114 -4.327217084955 0.9996866176114 -4.327217084955 8.3187920558e-4 71.291679632127
0.480000000000000 8.4975599791e-4 75.441262157766 0.9996770583408 -4.515071645828 0.9996770583408 -4.515071645828 8.6230225007e-4 71.204426907939
0.500000000000000 8.7916588938e-4 75.545680164311 0.9996675730080 -4.702919437852 0.9996675730080 -4.702919437852 8.9259333007e-4 71.106549694192
0.520000000000000 9.0842528545e-4 75.641710787821 0.9996581605397 -4.890760725464 0.9996581605397 -4.890760725464 9.2275557982e-4 70.999115124781
0.540000000000000 9.3753820439e-4 75.730256328795 0.9996488197869 -5.078595767307 0.9996488197869 -5.078595767307 9.5279212781e-4 70.883040817867
0.560000000000000 9.6650863828e-4 75.812092312101 0.9996395495288 -5.266424816186 0.9996395495288 -5.266424816186 9.8270608290e-4 70.759119528820
0.580000000000000 9.9534053911e-4 75.887887791121 0.9996303484770 -5.454248119018 0.9996303484770 -5.454248119018 0.0010125005231 70.628039117564
0.600000000000000 0.0010240378070 75.958221917789 0.9996212152793 -5.642065916802 0.9996212152793 -5.642065916802 0.0010421784863 70.490398834796
0.620000000000000 0.0010526042803 76.023597558195 0.9996121485231 -5.829878444597 0.9996121485231 -5.829878444597 0.0010717429625 70.346722696956
0.640000000000000 0.0010810437269 76.084452550884 0.9996031467400 -6.017685931497 0.9996031467400 -6.017685931497 0.0011011968881 70.197470538121
0.660000000000000 0.0011093598372 76.141169071639 0.9995942084088 -6.205488600620 0.9995942084088 -6.205488600620 0.0011305431399 70.043047196752
0.680000000000000 0.0011375562179 76.194081467028 0.9995853319601 -6.393286669113 0.9995853319601 -6.393286669113 0.0011597845317 69.883810193853
0.700000000000000 0.0011656363865 76.243482841983 0.9995765157792 -6.581080348144 0.9995765157792 -6.581080348144 0.0011889238102 69.720076184373
0.720000000000000 0.0011936037666 76.289630626419 0.9995677582103 -6.768869842922 0.9995677582103 -6.768869842922 0.0012179636522 69.552126403583
0.740000000000000 0.0012214616844 76.332751298180 0.9995590575600 -6.956655352722 0.9995590575599 -6.956655352723 0.0012469066625 69.380211291507
0.760000000000000 0.0012492133651 76.373044433348 0.9995504121006 -7.144437070847 0.9995504121006 -7.144437070847 0.0012757553721 69.204554406742
0.780000000000000 0.0012768619300 76.410686119354 0.9995418200740 -7.332215184788 0.9995418200740 -7.332215184788 0.0013045122362 69.025355836195
0.800000000000000 0.0013044103947 76.445831961691 0.9995332796950 -7.519989876130 0.9995332796950 -7.519989876130 0.0013331796335 68.842795042869
0.820000000000000 0.0013318616664 76.478619625327 0.9995247891545 -7.707761320660 0.9995247891545 -7.707761320660 0.0013617598654 68.657033379114
0.840000000000000 0.0013592185432 76.509171056088 0.9995163466231 -7.895529688407 0.9995163466231 -7.895529688407 0.0013902551553 68.468216237178
0.860000000000000 0.0013864837125 76.537594407262 0.9995079502538 -8.083295143692 0.9995079502538 -8.083295143692 0.0014186676481 68.276474919023
0.880000000000000 0.0014136597503 76.563985718033 0.9994995981860 -8.271057845189 0.9994995981860 -8.271057845189 0.0014469994106 68.081928263829
0.900000000000000 0.0014407491206 76.588430380489 0.9994912885477 -8.458817945992 0.9994912885477 -8.458817945992 0.0014752524312 67.884684068671
0.920000000000000 0.0014677541753 76.611004424644 0.9994830194593 -8.646575593684 0.9994830194593 -8.646575593684 0.0015034286203 67.684840331632
0.940000000000000 0.0014946771544 76.631775647534 0.9994747890357 -8.834330930412 0.9994747890357 -8.834330930412 0.0015315298108 67.482486343588
0.960000000000000 0.0015215201860 76.650804606360 0.9994665953899 -9.022084092970 0.9994665953899 -9.022084092970 0.0015595577585 67.277703647396
0.980000000000000 0.0015482852869 76.668145495329 0.9994584366352 -9.209835212877 0.9994584366352 -9.209835212877 0.0015875141428 67.070566884854
1.000000000000000 0.0015749743636 76.683846919735 0.9994503108881 -9.397584416470 0.9994503108881 -9.397584416470 0.0016154005678 66.861144543872
1.020000000000000 0.0016015892127 76.697952581656 0.9994422162709 -9.585331824995 0.9994422162709 -9.585331824995 0.0016432185629 66.649499620829
1.040000000000000 0.0016281315229 76.710501887467 0.9994341509140 -9.773077554700 0.9994341509140 -9.773077554700 0.0016709695838 66.435690207352
1.060000000000000 0.0016546028754 76.721530487015 0.9994261129586 -9.960821716936 0.9994261129586 -9.960821716936 0.0016986550139 66.219770011868
1.080000000000000 0.0016810047461 76.731070752674 0.9994181005586 -10.14856441826 0.9994181005586 -10.14856441826 0.0017262761654 66.001788823725
1.100000000000000 0.0017073385070 76.739152205291 0.9994101118831 -10.33630576054 0.9994101118831 -10.33630576054 0.0017538342802 65.781792926399
1.120000000000000 0.0017336054278 76.745801893098 0.9994021451183 -10.52404584105 0.9994021451183 -10.52404584105 0.0017813305320 65.559825466565
1.140000000000000 0.0017598066782 76.751044728778 0.9993941984698 -10.71178475261 0.9993941984698 -10.71178475261 0.0018087660266 65.335926783152
1.160000000000000 0.0017859433297 76.754903789794 0.9993862701641 -10.89952258367 0.9993862701641 -10.89952258367 0.0018361418045 65.110134702139
1.180000000000000 0.0018120163578 76.757400585475 0.9993783584509 -11.08725941842 0.9993783584509 -11.08725941842 0.0018634588415 64.882484799906
1.200000000000000 0.0018380266444 76.758555294445 0.9993704616045 -11.27499533695 0.9993704616045 -11.27499533695 0.0018907180508 64.653010639105
1.220000000000000 0.0018639749801 76.758386976087 0.9993625779253 -11.46273041530 0.9993625779253 -11.46273041530 0.0019179202841 64.421743980207
1.240000000000000 0.0018898620665 76.756913758203 0.9993547057420 -11.65046472565 0.9993547057420 -11.65046472565 0.0019450663339 64.188714970811
1.260000000000000 0.0019156885190 76.754153003233 0.9993468434123 -11.83819833638 0.9993468434123 -11.83819833638 0.0019721569342 63.953952315599
1.280000000000000 0.0019414548694 76.750121455799 0.9993389893246 -12.02593131223 0.9993389893246 -12.02593131223 0.0019991927631 63.717483428760
1.300000000000000 0.0019671615682 76.744835372941 0.9993311418993 -12.21366371440 0.9993311418993 -12.21366371440 0.0020261744437 63.479334570500
1.320000000000000 0.0019928089878 76.738310638811 0.9993232995899 -12.40139560068 0.9993232995899 -12.40139560068 0.0020531025463 63.239530969598
1.340000000000000 0.0020183974248 76.730562865681 0.9993154608839 -12.58912702558 0.9993154608839 -12.58912702558 0.0020799775901 62.998096933198
1.360000000000000 0.0020439271033 76.721607482228 0.9993076243043 -12.77685804043 0.9993076243043 -12.77685804043 0.0021068000446 62.755055945205
1.380000000000000 0.0020693981770 76.711459810417 0.9992997884097 -12.96458869352 0.9992997884097 -12.96458869352 0.0021335703314 62.510430754266
1.400000000000000 0.0020948107330 76.700135132282 0.9992919517960 -13.15231903021 0.9992919517960 -13.15231903021 0.0021602888263 62.264243452688
1.420000000000000 0.0021201647937 76.687648747515 0.9992841130965 -13.34004909308 0.9992841130965 -13.34004909308 0.0021869558606 62.016515546793
1.440000000000000 0.0021454603208 76.674016021042 0.9992762709825 -13.52777892200 0.9992762709825 -13.52777892200 0.0022135717223 61.767268012950
1.460000000000000 0.0021706972161 76.659252431141 0.9992684241653 -13.71550855431 0.9992684241653 -13.71550855431 0.0022401366611 61.516521387321
1.480000000000000 0.0021958753274 76.643373591374 0.9992605713938 -13.90323802487 0.9992605713938 -13.90323802487 0.0022666508837 61.264295748205
1.500000000000000 0.0022209944487 76.626395291875 0.9992527114576 -14.09096736623 0.9992527114576 -14.09096736623 0.0022931145618 61.010610827723
1.520000000000000 0.0022460543245 76.608333515903 0.9992448431863 -14.27869660875 0.9992448431863 -14.27869660875 0.0023195278306 60.755486017087
1.540000000000000 0.0022710546518 76.589204459205 0.9992369654497 -14.46642578068 0.9992369654497 -14.46642578068 0.0023458907912 60.498940407994
1.560000000000000 0.0022959950835 76.569024543377 0.9992290771581 -14.65415490828 0.9992290771581 -14.65415490828 0.0023722035121 60.240992822915
1.580000000000000 0.0023208752310 76.547810425426 0.9992211772623 -14.84188401596 0.9992211772623 -14.84188401596 0.0023984660309 59.981661841798
1.600000000000000 0.0023456946666 76.525579003351 0.9992132647539 -15.02961312635 0.9992132647539 -15.02961312635 0.0024246783560 59.720965825133
1.620000000000000 0.0023704529266 76.502347418894 0.9992053386650 -15.21734226046 0.9992053386650 -15.21734226046 0.0024508404680 59.458922934250
1.640000000000000 0.0023951495139 76.478133056954 0.9991973980685 -15.40507143772 0.9991973980685 -15.40507143772 0.0024769523212 59.195551148574
1.660000000000000 0.0024197839004 76.452953542794 0.9991894420773 -15.59280067615 0.9991894420773 -15.59280067615 0.0025030138454 58.930868280424
1.680000000000000 0.0024443555295 76.426826736688 0.9991814698449 -15.78052999242 0.9991814698449 -15.78052999242 0.0025290249473 58.664891987688
1.700000000000000 0.0024688638190 76.399770726610 0.9991734805646 -15.96825940196 0.9991734805646 -15.96825940196 0.0025549855117 58.397639784218
1.720000000000000 0.0024933081631 76.371803819338 0.9991654734693 -16.15598891905 0.9991654734693 -16.15598891905 0.0025808954032 58.129129048602
1.740000000000000 0.0025176879352 76.342944529658 0.9991574478312 -16.34371855695 0.9991574478312 -16.34371855695 0.0026067544677 57.859377031060
1.760000000000000 0.0025420024897 76.313211568562 0.9991494029614 -16.53144832793 0.9991494029614 -16.53144832793 0.0026325625333 57.588400859135
1.780000000000000 0.0025662511647 76.282623830031 0.9991413382094 -16.71917824343 0.9991413382094 -16.71917824343 0.0026583194121 57.316217541704
1.800000000000000 0.0025904332842 76.251200377060 0.9991332529625 -16.90690831409 0.9991332529625 -16.90690831409 0.0026840249014 57.042843972089
1.820000000000000 0.0026145481598 76.218960426664 0.9991251466456 -17.09463854988 0.9991251466456 -17.09463854988 0.0027096787847 56.768296929930
1.840000000000000 0.0026385950933 76.185923334321 0.9991170187201 -17.28236896012 0.9991170187201 -17.28236896012 0.0027352808333 56.492593082232
1.860000000000000 0.0026625733783 76.152108577845 0.9991088686838 -17.47009955365 0.9991088686838 -17.47009955365 0.0027608308072 56.215748983450
1.880000000000000 0.0026864823021 76.117535740908 0.9991006960697 -17.65783033881 0.9991006960697 -17.65783033881 0.0027863284565 55.937781074970
1.900000000000000 0.0027103211481 76.082224496063 0.9990925004458 -17.84556132360 0.9990925004458 -17.84556132360 0.0028117735220 55.658705683797
1.920000000000000 0.0027340891969 76.046194587804 0.9990842814142 -18.03329251566 0.9990842814142 -18.03329251566 0.0028371657372 55.378539020837
1.940000000000000 0.0027577857282 76.009465815257 0.9990760386103 -18.22102392245 0.9990760386103 -18.22102392245 0.0028625048283 55.097297178530
1.960000000000000 0.0027814100229 75.972058015129 0.9990677717020 -18.40875555119 0.9990677717020 -18.40875555119 0.0028877905160 54.814996128210
1.980000000000000 0.0028049613639 75.933991044379 0.9990594803890 -18.59648740904 0.9990594803890 -18.59648740904 0.0029130225162 54.531651716997
2.000000000000000 0.0028284390382 75.895284763277 0.9990511644020 -18.78421950307 0.9990511644020 -18.78421950307 0.0029382005405 54.247279664444
2.020000000000000 0.0028518423379 75.855959018448 0.9990428235016 -18.97195184037 0.9990428235016 -18.97195184037 0.0029633242980 53.961895558935
2.040000000000000 0.0028751705619 75.816033626276 0.9990344574779 -19.15968442807 0.9990344574779 -19.15968442807 0.0029883934953 53.675514853854
2.060000000000000 0.0028984230170 75.775528356491 0.9990260661493 -19.34741727344 0.9990260661493 -19.34741727344 0.0030134078378 53.388152863627
2.080000000000000 0.0029215990189 75.734462916126 0.9990176493616 -19.53515038387 0.9990176493616 -19.53515038387 0.0030383670302 53.099824759626
2.100000000000000 0.0029446978937 75.692856933864 0.9990092069872 -19.72288376696 0.9990092069872 -19.72288376696 0.0030632707775 52.810545566044
2.120000000000000 0.0029677189787 75.650729944671 0.9990007389243 -19.91061743059 0.9990007389243 -19.91061743059 0.0030881187856 52.520330155585
2.140000000000000 0.0029906616234 75.608101375014 0.9989922450959 -20.09835138288 0.9989922450959 -20.09835138288 0.0031129107618 52.229193245383
2.160000000000000 0.0030135251907 75.564990528460 0.9989837254487 -20.28608563230 0.9989837254487 -20.28608563230 0.0031376464159 51.937149392613
2.180000000000000 0.0030363090573 75.521416571642 0.9989751799524 -20.47382018766 0.9989751799524 -20.47382018766 0.0031623254602 51.644212990383
2.200000000000000 0.0030590126149 75.477398520947 0.9989666085987 -20.66155505820 0.9989666085987 -20.66155505820 0.0031869476106 51.350398263608
2.220000000000000 0.0030816352706 75.432955229573 0.9989580114006 -20.84929025353 0.9989580114006 -20.84929025353 0.0032115125866 51.055719264830
2.240000000000000 0.0031041764478 75.388105375132 0.9989493883909 -21.03702578375 0.9989493883909 -21.03702578375 0.0032360201124 50.760189870426
2.260000000000000 0.0031266355866 75.342867447837 0.9989407396219 -21.22476165941 0.9989407396219 -21.22476165941 0.0032604699169 50.463823776494
2.280000000000000 0.0031490121445 75.297259739100 0.9989320651642 -21.41249789157 0.9989320651642 -21.41249789157 0.0032848617345 50.166634495254
2.300000000000000 0.0031713055967 75.251300330980 0.9989233651056 -21.60023449180 0.9989233651056 -21.60023449180 0.0033091953052 49.868635351349
2.320000000000000 0.0031935154368 75.205007085832 0.9989146395508 -21.78797147222 0.9989146395508 -21.78797147222 0.0033334703749 49.569839478366
2.340000000000000 0.0032156411768 75.158397636788 0.9989058886197 -21.97570884549 0.9989058886197 -21.97570884549 0.0033576866964 49.270259815452
2.360000000000000 0.0032376823477 75.111489378697 0.9988971124472 -22.16344662483 0.9988971124472 -22.16344662483 0.0033818440289 48.969909104160
2.380000000000000 0.0032596384994 75.064299459541 0.9988883111818 -22.35118482405 0.9988883111818 -22.35118482405 0.0034059421388 48.668799885350
2.400000000000000 0.0032815092015 75.016844772669 0.9988794849852 -22.53892345754 0.9988794849852 -22.53892345754 0.0034299807997 48.366944496374
2.420000000000000 0.0033032940427 74.969141949234 0.9988706340311 -22.72666254029 0.9988706340311 -22.72666254029 0.0034539597928 48.064355068336
2.440000000000000 0.0033249926316 74.921207351537 0.9988617585045 -22.91440208789 0.9988617585045 -22.91440208789 0.0034778789073 47.761043523614
2.460000000000000 0.0033466045962 74.873057066656 0.9988528586009 -23.10214211653 0.9988528586009 -23.10214211653 0.0035017379400 47.457021573407
2.480000000000000 0.0033681295842 74.824706900721 0.9988439345253 -23.28988264301 0.9988439345253 -23.28988264301 0.0035255366960 47.152300715638
2.500000000000000 0.0033895672631 74.776172373757 0.9988349864916 -23.47762368474 0.9988349864916 -23.47762368474 0.0035492749886 46.846892232956
2.520000000000000 0.0034109173196 74.727468714905 0.9988260147219 -23.66536525972 0.9988260147219 -23.66536525972 0.0035729526395 46.540807190832
2.540000000000000 0.0034321794601 74.678610858374 0.9988170194454 -23.85310738658 0.9988170194454 -23.85310738658 0.0035965694788 46.234056436020
2.560000000000000 0.0034533534102 74.629613439682 0.9988080008979 -24.04085008452 0.9988080008979 -24.04085008452 0.0036201253451 45.926650595018
2.580000000000000 0.0034744389146 74.580490792563 0.9987989593211 -24.22859337336 0.9987989593211 -24.22859337336 0.0036436200857 45.618600072756
2.600000000000000 0.0034954357367 74.531256946212 0.9987898949618 -24.41633727348 0.9987898949618 -24.41633727348 0.0036670535564 45.309915051615
2.620000000000000 0.0035163436588 74.481925623132 0.9987808080711 -24.60408180586 0.9987808080711 -24.60408180586 0.0036904256217 45.000605490275
2.640000000000000 0.0035371624813 74.432510237324 0.9987716989042 -24.79182699203 0.9987716989042 -24.79182699203 0.0037137361546 44.690681123105
2.660000000000000 0.0035578920227 74.383023893042 0.9987625677190 -24.97957285409 0.9987625677190 -24.97957285409 0.0037369850369 44.380151459507
2.680000000000000 0.0035785321192 74.333479383898 0.9987534147762 -25.16731941466 0.9987534147762 -25.16731941466 0.0037601721587 44.069025783443
2.700000000000000 0.0035990826243 74.283889192358 0.9987442403383 -25.35506669691 0.9987442403383 -25.35506669691 0.0037832974189 43.757313153112
2.720000000000000 0.0036195434084 74.234265489849 0.9987350446692 -25.54281472454 0.9987350446692 -25.54281472454 0.0038063607245 43.445022400977
2.740000000000000 0.0036399143584 74.184620136998 0.9987258280333 -25.73056352171 0.9987258280333 -25.73056352171 0.0038293619911 43.132162133617
2.760000000000000 0.0036601953773 74.134964684462 0.9987165906955 -25.91831311310 0.9987165906955 -25.91831311310 0.0038523011425 42.818740731984
2.780000000000000 0.0036803863837 74.085310373999 0.9987073329202 -26.10606352384 0.9987073329202 -26.10606352384 0.0038751781105 42.504766351747
2.800000000000000 0.0037004873114 74.035668139964 0.9986980549711 -26.29381477953 0.9986980549711 -26.29381477953 0.0038979928350 42.190246923649
2.820000000000000 0.0037204981088 73.986048611173 0.9986887571107 -26.48156690616 0.9986887571107 -26.48156690616 0.0039207452639 41.875190154241
2.840000000000000 0.0037404187385 73.936462113055 0.9986794395996 -26.66931993019 0.9986794395996 -26.66931993019 0.0039434353528 41.559603526516
2.860000000000000 0.0037602491768 73.886918670083 0.9986701026963 -26.85707387842 0.9986701026963 -26.85707387842 0.0039660630646 41.243494300782
2.880000000000000 0.0037799894132 73.837428008657 0.9986607466569 -27.04482877804 0.9986607466569 -27.04482877804 0.0039886283700 40.926869515687
2.900000000000000 0.0037996394496 73.787999560101 0.9986513717343 -27.23258465662 0.9986513717343 -27.23258465662 0.0040111312468 40.609735989281
2.920000000000000 0.0038191993001 73.738642464131 0.9986419781783 -27.42034154202 0.9986419781783 -27.42034154202 0.0040335716797 40.292100320241
2.940000000000000 0.0038386689902 73.689365572390 0.9986325662350 -27.60809946242 0.9986325662350 -27.60809946242 0.0040559496605 39.973968889209
2.960000000000000 0.0038580485566 73.640177452392 0.9986231361465 -27.79585844629 0.9986231361465 -27.79585844629 0.0040782651876 39.655347860236
2.980000000000000 0.0038773380461 73.591086391677 0.9986136881506 -27.98361852238 0.9986136881506 -27.98361852238 0.0041005182658 39.336243182259
3.000000000000000 0.0038965375154 73.542100402152 0.9986042224807 -28.17137971966 0.9986042224807 -28.17137971966 0.0041227089062 39.016660590822
3.020000000000000 0.0039156470306 73.493227224689 0.9985947393653 -28.35914206732 0.9985947393653 -28.35914206732 0.0041448371260 38.696605609714
3.040000000000000 0.0039346666665 73.444474333904 0.9985852390279 -28.54690559476 0.9985852390279 -28.54690559476 0.0041669029483 38.376083552859
3.060000000000000 0.0039535965057 73.395848935643 0.9985757216859 -28.73467033153 0.9985757216859 -28.73467033153 0.0041889064004 38.055099515239
3.080000000000000 0.0039724383806 73.347382334226 0.9985661892095 -28.92243634142 0.9985661892095 -28.92243634142 0.0042108472984 37.733671284314
3.100000000000000 0.0039911941929 73.299104172739 0.9985566434471 -29.11020369043 0.9985566434471 -29.11020369043 0.0042327254683 37.411816103966
3.120000000000000 0.0040098641313 73.251018783904 0.9985470845757 -29.29797241149 0.9985470845757 -29.29797241149 0.0042545409732 37.089538015707
3.140000000000000 0.0040284483766 73.203130141831 0.9985375127555 -29.48574253739 0.9985375127555 -29.48574253739 0.0042762938806 36.766840781618
3.160000000000000 0.0040469471014 73.155441883295 0.9985279281298 -29.67351410066 0.9985279281298 -29.67351410066 0.0042979842633 36.443727898485
3.180000000000000 0.0040653604686 73.107957321606 0.9985183308258 -29.86128713359 0.9985183308258 -29.86128713359 0.0043196121989 36.120202600975
3.200000000000000 0.0040836886303 73.060679460819 0.9985087209536 -30.04906166816 0.9985087209536 -30.04906166816 0.0043411777699 35.796267865005
3.220000000000000 0.0041019317267 73.013611009960 0.9984990986069 -30.23683773601 0.9984990986069 -30.23683773601 0.0043626810627 35.471926411149
3.240000000000000 0.0041200898854 72.966754397395 0.9984894638625 -30.42461536838 0.9984894638625 -30.42461536838 0.0043841221681 35.147180708157
3.260000000000000 0.0041381632197 72.920111785561 0.9984798167805 -30.61239459610 0.9984798167805 -30.61239459610 0.0044055011803 34.822032976465
3.280000000000000 0.0041561518285 72.873685085463 0.9984701574043 -30.80017544954 0.9984701574043 -30.80017544954 0.0044268181970 34.496485191825
3.300000000000000 0.0041740557945 72.827475971554 0.9984604857608 -30.98795795857 0.9984604857608 -30.98795795857 0.0044480733192 34.170539089039
3.320000000000000 0.0041918751838 72.781485896487 0.9984508018600 -31.17574215252 0.9984508018600 -31.17574215252 0.0044692666505 33.844196165593
3.340000000000000 0.0042096100448 72.735716106080 0.9984411056959 -31.36352806014 0.9984411056959 -31.36352806014 0.0044903982970 33.517457685503
3.360000000000000 0.0042272604075 72.690167654183 0.9984313972457 -31.55131570957 0.9984313972457 -31.55131570957 0.0045114683672 33.190324683094
3.380000000000000 0.0042448262825 72.644841417670 0.9984216764708 -31.73910512831 0.9984216764708 -31.73910512831 0.0045324769713 32.862797966864
3.400000000000000 0.0042623076602 72.599738111371 0.9984119433162 -31.92689634319 0.9984119433162 -31.92689634319 0.0045534242216 32.534878123356
3.420000000000000 0.0042797045102 72.554858303043 0.9984021977114 -32.11468938030 0.9984021977114 -32.11468938030 0.0045743102313 32.206565521106
3.440000000000000 0.0042970167806 72.510202428250 0.9983924395701 -32.30248426500 0.9983924395701 -32.30248426500 0.0045951351150 31.877860314530
3.460000000000000 0.0043142443971 72.465770805299 0.9983826687906 -32.49028102186 0.9983826687906 -32.49028102186 0.0046158989882 31.548762447872
3.480000000000000 0.0043313872627 72.421563650034 0.9983728852561 -32.67807967464 0.9983728852561 -32.67807967464 0.0046366019668 31.219271659244
3.500000000000000 0.0043484452566 72.377581090577 0.9983630888348 -32.86588024627 0.9983630888348 -32.86588024627 0.0046572441672 30.889387484498
3.520000000000000 0.0043654182342 72.333823182037 0.9983532793804 -33.05368275878 0.9983532793804 -33.05368275878 0.0046778257059 30.559109261303
3.540000000000000 0.0043823060262 72.290289921125 0.9983434567322 -33.24148723334 0.9983434567322 -33.24148723334 0.0046983466992 30.228436133081
3.560000000000000 0.0043991084382 72.246981260558 0.9983336207156 -33.42929369014 0.9983336207156 -33.42929369014 0.0047188072630 29.897367052994
3.580000000000000 0.0044158252504 72.203897123490 0.9983237711421 -33.61710214846 0.9983237711421 -33.61710214846 0.0047392075128 29.565900787963
3.600000000000000 0.0044324562169 72.161037417709 0.9983139078100 -33.80491262656 0.9983139078100 -33.80491262656 0.0047595475631 29.234035922621
3.620000000000000 0.0044490010656 72.118402049780 0.9983040305045 -33.99272514173 0.9983040305045 -33.99272514173 0.0047798275274 28.901770863262
3.640000000000000 0.0044654594978 72.075990938949 0.9982941389982 -34.18053971019 0.9982941389982 -34.18053971019 0.0048000475180 28.569103841817
3.660000000000000 0.0044818311880 72.033804030971 0.9982842330515 -34.36835634712 0.9982842330515 -34.36835634712 0.0048202076458 28.236032919821
3.680000000000000 0.0044981157834 71.991841311716 0.9982743124127 -34.55617506664 0.9982743124127 -34.55617506664 0.0048403080200 27.902555992251
3.700000000000000 0.0045143129039 71.950102820642 0.9982643768187 -34.74399588173 0.9982643768187 -34.74399588173 0.0048603487480 27.568670791519
3.720000000000000 0.0045304221419 71.908588664064 0.9982544259954 -34.93181880430 0.9982544259954 -34.93181880430 0.0048803299355 27.234374891261
3.740000000000000 0.0045464430621 71.867299028221 0.9982444596579 -35.11964384508 0.9982444596579 -35.11964384508 0.0049002516855 26.899665710257
3.760000000000000 0.0045623752016 71.826234192189 0.9982344775110 -35.30747101365 0.9982344775110 -35.30747101365 0.0049201140994 26.564540516201
3.780000000000000 0.0045782180697 71.785394540566 0.9982244792496 -35.49530031843 0.9982244792496 -35.49530031843 0.0049399172755 26.228996429516
3.800000000000000 0.0045939711479 71.744780575894 0.9982144645595 -35.68313176664 0.9982144645595 -35.68313176664 0.0049596613100 25.893030427093
3.820000000000000 0.0046096338899 71.704392931029 0.9982044331171 -35.87096536429 0.9982044331171 -35.87096536429 0.0049793462962 25.556639346042
3.840000000000000 0.0046252057218 71.664232381067 0.9981943845905 -36.05880111616 0.9981943845905 -36.05880111616 0.0049989723245 25.219819887355
3.860000000000000 0.0046406860421 71.624299855277 0.9981843186397 -36.24663902580 0.9981843186397 -36.24663902580 0.0050185394825 24.882568619544
3.880000000000000 0.0046560742220 71.584596448621 0.9981742349169 -36.43447909551 0.9981742349169 -36.43447909551 0.0050380478545 24.544881982303
3.900000000000000 0.0046713696053 71.545123433186 0.9981641330675 -36.62232132633 0.9981641330675 -36.62232132633 0.0050574975220 24.206756290010
3.920000000000000 0.0046865715090 71.505882269281 0.9981540127297 -36.81016571803 0.9981540127297 -36.81016571803 0.0050768885629 23.868187735294
3.940000000000000 0.0047016792230 71.466874616368 0.9981438735358 -36.99801226909 0.9981438735358 -36.99801226909 0.0050962210519 23.529172392515
3.960000000000000 0.0047166920111 71.428102343723 0.9981337151121 -37.18586097670 0.9981337151121 -37.18586097670 0.0051154950605 23.189706221180
3.980000000000000 0.0047316091108 71.389567540893 0.9981235370797 -37.37371183675 0.9981235370797 -37.37371183675 0.0051347106564 22.849785069356
4.000000000000000 0.0047464297339 71.351272527852 0.9981133390548 -37.56156484381 0.9981133390548 -37.56156484381 0.0051538679041 22.509404677005
4.020000000000000 0.0047611530666 71.313219865002 0.9981031206491 -37.74941999116 0.9981031206491 -37.74941999116 0.0051729668642 22.168560679267
4.040000000000000 0.0047757782706 71.275412362874 0.9980928814705 -37.93727727075 0.9980928814705 -37.93727727075 0.0051920075939 21.827248609750
4.060000000000000 0.0047903044828 71.237853091616 0.9980826211233 -38.12513667319 0.9980826211233 -38.12513667319 0.0052109901469 21.485463903653
4.080000000000000 0.0048047308162 71.200545390258 0.9980723392091 -38.31299818777 0.9980723392091 -38.31299818777 0.0052299145730 21.143201901003
4.100000000000001 0.0048190563603 71.163492875695 0.9980620353267 -38.50086180246 0.9980620353267 -38.50086180246 0.0052487809183 20.800457849669
4.120000000000000 0.0048332801819 71.126699451490 0.9980517090729 -38.68872750387 0.9980517090729 -38.68872750387 0.0052675892255 20.457226908468