! Sonnet Data File
! From: sonnet Version : 18.53-Lite
! From Emgraph Data: 
! Data File Written: 04/08/2024 17:23:37
!< HDATE 04/08/2024 17:23:19
!< MDATE 04/08/2024 17:23:19
# GHZ S MA R 50.00000
0.100000000000000 0.0017679522501 88.312101569093 0.9999495888190 -0.187831573660 0.9999495888190 -0.187831573657 0.0017679493966 88.308092981261
0.120000000000000 0.0021129882260 88.329591677101 0.9999466196065 -0.224945265740 0.9999466196065 -0.224945265740 0.0021129637998 88.317629298522
0.140000000000000 0.0024580295323 88.333941923112 0.9999435334140 -0.262058525936 0.9999435334140 -0.262058525936 0.0024579837128 88.316140375382
0.160000000000000 0.0028030755339 88.330004400420 0.9999403302444 -0.299171348032 0.9999403302444 -0.299171348032 0.0028030086076 88.307697271054
0.180000000000000 0.0031481257602 88.320504080635 0.9999370101012 -0.336283725777 0.9999370101012 -0.336283725777 0.0031480380717 88.294586392530
0.200000000000000 0.0034931798234 88.307089324474 0.9999335729879 -0.373395652926 0.9999335729879 -0.373395652926 0.0034930717507 88.278190838900
0.220000000000000 0.0038382373817 88.290815785293 0.9999300189084 -0.410507123227 0.9999300189084 -0.410507123227 0.0038381093225 88.259396398764
0.240000000000000 0.0041832981199 88.272390840374 0.9999263478667 -0.447618130427 0.9999263478667 -0.447618130427 0.0041831504839 88.238796634473
0.260000000000000 0.0045283617396 88.252306275663 0.9999225598672 -0.484728668269 0.9999225598672 -0.484728668269 0.0045281949433 88.216804210497
0.280000000000000 0.0048734279528 88.230914605648 0.9999186549143 -0.521838730496 0.9999186549143 -0.521838730496 0.0048732424166 88.193714930141
0.300000000000000 0.0052184964790 88.208475116022 0.9999146330129 -0.558948310846 0.9999146330129 -0.558948310846 0.0052182926248 88.169746368616
0.320000000000000 0.0055635670422 88.185182773353 0.9999104941680 -0.596057403056 0.9999104941680 -0.596057403056 0.0055633452922 88.145062130575
0.340000000000000 0.0059086393702 88.161187005269 0.9999062383847 -0.633166000857 0.9999062383847 -0.633166000857 0.0059084001457 88.119787608388
0.360000000000000 0.0062537131931 88.136604263561 0.9999018656684 -0.670274097986 0.9999018656684 -0.670274097986 0.0062534569138 88.094020523700
0.380000000000000 0.0065987882430 88.111526645654 0.9998973760250 -0.707381688168 0.9998973760250 -0.707381688168 0.0065985153263 88.067838161885
0.400000000000000 0.0069438642532 88.086027945682 0.9998927694603 -0.744488765133 0.9998927694603 -0.744488765133 0.0069435751139 88.041302449445
0.420000000000000 0.0072889409581 88.060167986782 0.9998880459805 -0.781595322605 0.9998880459805 -0.781595322605 0.0072886360082 88.014463589378
0.440000000000000 0.0076340180928 88.033995778497 0.9998832055919 -0.818701354307 0.9998832055919 -0.818701354307 0.0076336977411 87.987362710591
0.460000000000000 0.0079790953933 88.007551854972 0.9998782483012 -0.855806853959 0.9998782483012 -0.855806853959 0.0079787600452 87.960033829934
0.480000000000000 0.0083241725958 87.980870031554 0.9998731741151 -0.892911815279 0.9998731741151 -0.892911815279 0.0083238226531 87.932505326218
0.500000000000000 0.0086692494368 87.953978741919 0.9998679830409 -0.930016231986 0.9998679830409 -0.930016231986 0.0086688852978 87.904801062245
0.520000000000000 0.0090143256534 87.926902068100 0.9998626750858 -0.967120097791 0.9998626750858 -0.967120097791 0.0090139477126 87.876941249140
0.540000000000000 0.0093594009826 87.899660542641 0.9998572502574 -1.004223406409 0.9998572502574 -1.004223406409 0.0093590096307 87.848943119466
0.560000000000000 0.0097044751620 87.872271779676 0.9998517085634 -1.041326151550 0.9998517085634 -1.041326151550 0.0097040707857 87.820821456788
0.580000000000000 0.0100495479288 87.844750975915 0.9998460500119 -1.078428326923 0.9998460500119 -1.078428326923 0.0100491309110 87.792589016085
0.600000000000000 0.0103946190209 87.817111311924 0.9998402746111 -1.115529926233 0.9998402746111 -1.115529926233 0.0103941897404 87.764256860462
0.620000000000000 0.0107396881758 87.789364275995 0.9998343823695 -1.152630943187 0.9998343823695 -1.152630943187 0.0107392470075 87.735834632945
0.640000000000000 0.0110847551315 87.761519927554 0.9998283732959 -1.189731371488 0.9998283732959 -1.189731371488 0.0110843024460 87.707330777504
0.660000000000000 0.0114298196256 87.733587112842 0.9998222473992 -1.226831204837 0.9998222473992 -1.226831204837 0.0114293557897 87.678752720054
0.680000000000000 0.0117748813962 87.705573642673 0.9998160046886 -1.263930436934 0.9998160046886 -1.263930436934 0.0117744067724 87.650107017615
0.700000000000000 0.0121199401811 87.677486439838 0.9998096451735 -1.301029061477 0.9998096451735 -1.301029061477 0.0121194551278 87.621399482013
0.720000000000000 0.0124649957184 87.649331662011 0.9998031688636 -1.338127072163 0.9998031688636 -1.338127072163 0.0124645005897 87.592635283010
0.740000000000000 0.0128100477459 87.621114804809 0.9997965757688 -1.375224462688 0.9997965757688 -1.375224462688 0.0128095428921 87.563819034790
0.760000000000000 0.0131550960018 87.592840788605 0.9997898658992 -1.412321226745 0.9997898658992 -1.412321226745 0.0131545817686 87.534954868815
0.780000000000000 0.0135001402240 87.564514032070 0.9997830392653 -1.449417358026 0.9997830392653 -1.449417358026 0.0134996169531 87.506046495530
0.800000000000000 0.0138451801505 87.536138514668 0.9997760958776 -1.486512850221 0.9997760958776 -1.486512850221 0.0138446481794 87.477097256818
0.820000000000000 0.0141902155193 87.507717830065 0.9997690357470 -1.523607697021 0.9997690357470 -1.523607697021 0.0141896751814 87.448110170801
0.840000000000000 0.0145352460686 87.479255231931 0.9997618588846 -1.560701892114 0.9997618588846 -1.560701892114 0.0145346976927 87.419087970298
0.860000000000000 0.0148802715362 87.450753673356 0.9997545653017 -1.597795429186 0.9997545653017 -1.597795429186 0.0148797154473 87.390033135879
0.880000000000000 0.0152252916603 87.422215840900 0.9997471550098 -1.634888301923 0.9997471550098 -1.634888301923 0.0152247281789 87.360947924460
0.900000000000000 0.0155703061789 87.393644184152 0.9997396280209 -1.671980504009 0.9997396280209 -1.671980504009 0.0155697356213 87.331834394086
0.920000000000000 0.0159153148299 87.365040941401 0.9997319843468 -1.709072029128 0.9997319843468 -1.709072029128 0.0159147375082 87.302694425490
0.940000000000000 0.0162603173515 87.336408162049 0.9997242239999 -1.746162870961 0.9997242239999 -1.746162870961 0.0162597335734 87.273529740907
0.960000000000000 0.0166053134815 87.307747726260 0.9997163469928 -1.783253023191 0.9997163469928 -1.783253023191 0.0166047235507 87.244341920534
0.980000000000000 0.0169503029581 87.279061362171 0.9997083533380 -1.820342479497 0.9997083533380 -1.820342479497 0.0169497071739 87.215132417000
1.000000000000000 0.0172952855192 87.250350661057 0.9997002430488 -1.857431233558 0.9997002430488 -1.857431233558 0.0172946841766 87.185902568086
1.020000000000000 0.0176402609029 87.221617090723 0.9996920161382 -1.894519279052 0.9996920161382 -1.894519279052 0.0176396542926 87.156653607954
1.040000000000000 0.0179852288471 87.192862007346 0.9996836726199 -1.931606609658 0.9996836726199 -1.931606609658 0.0179846172557 87.127386677097
1.060000000000000 0.0183301890898 87.164086665982 0.9996752125073 -1.968693219050 0.9996752125073 -1.968693219050 0.0183295727995 87.098102831144
1.080000000000000 0.0186751413691 87.135292229906 0.9996666358146 -2.005779100906 0.9996666358146 -2.005779100906 0.0186745206578 87.068803048709
1.100000000000000 0.0190200854229 87.106479778945 0.9996579425560 -2.042864248899 0.9996579425560 -2.042864248899 0.0190194605643 87.039488238374
1.120000000000000 0.0193650209892 87.077650316896 0.9996491327457 -2.079948656705 0.9996491327457 -2.079948656705 0.0193643922527 87.010159244928
1.140000000000000 0.0197099478060 87.048804778205 0.9996402063986 -2.117032317998 0.9996402063986 -2.117032317998 0.0197093154568 86.980816854947
1.160000000000000 0.0200548656113 87.019944033914 0.9996311635295 -2.154115226448 0.9996311635295 -2.154115226448 0.0200542299102 86.951461801817
1.180000000000000 0.0203997741431 86.991068897028 0.9996220041536 -2.191197375731 0.9996220041536 -2.191197375731 0.0203991353466 86.922094770214
1.200000000000000 0.0207446731394 86.962180127352 0.9996127282862 -2.228278759517 0.9996127282862 -2.228278759517 0.0207440314997 86.892716400168
1.220000000000000 0.0210895623381 86.933278435831 0.9996033359430 -2.265359371478 0.9996033359430 -2.265359371478 0.0210889181033 86.863327290707
1.240000000000000 0.0214344414774 86.904364488482 0.9995938271399 -2.302439205285 0.9995938271399 -2.302439205285 0.0214337948911 86.833928003163
1.260000000000000 0.0217793102950 86.875438909964 0.9995842018930 -2.339518254608 0.9995842018930 -2.339518254608 0.0217786615968 86.804519064160
1.280000000000000 0.0221241685292 86.846502286798 0.9995744602186 -2.376596513119 0.9995744602186 -2.376596513119 0.0221235179540 86.775100968311
1.300000000000000 0.0224690159179 86.817555170292 0.9995646021333 -2.413673974487 0.9995646021333 -2.413673974487 0.0224683636966 86.745674180690
1.320000000000000 0.0228138521990 86.788598079208 0.9995546276540 -2.450750632381 0.9995546276540 -2.450750632381 0.0228131985583 86.716239139051
1.340000000000000 0.0231586771108 86.759631502186 0.9995445367977 -2.487826480472 0.9995445367977 -2.487826480472 0.0231580222727 86.686796255874
1.360000000000000 0.0235034903910 86.730655899952 0.9995343295817 -2.524901512428 0.9995343295817 -2.524901512428 0.0235028345737 86.657345920220
1.380000000000000 0.0238482917779 86.701671707343 0.9995240060236 -2.561975721920 0.9995240060236 -2.561975721920 0.0238476351949 86.627888499415
1.400000000000000 0.0241930810095 86.672679335149 0.9995135661413 -2.599049102617 0.9995135661413 -2.599049102617 0.0241924238703 86.598424340613
1.420000000000000 0.0245378578238 86.643679171807 0.9995030099526 -2.636121648187 0.9995030099526 -2.636121648187 0.0245372003335 86.568953772207
1.440000000000000 0.0248826219590 86.614671584948 0.9994923374760 -2.673193352300 0.9994923374760 -2.673193352300 0.0248819643183 86.539477105132
1.460000000000000 0.0252273731531 86.585656922814 0.9994815487299 -2.710264208626 0.9994815487299 -2.710264208626 0.0252267155586 86.509994634058
1.480000000000000 0.0255721111442 86.556635515586 0.9994706437331 -2.747334210833 0.9994706437331 -2.747334210833 0.0255714537881 86.480506638487
1.500000000000000 0.0259168356705 86.527607676562 0.9994596225046 -2.784403352592 0.9994596225046 -2.784403352592 0.0259161787407 86.451013383766
1.520000000000000 0.0262615464700 86.498573703285 0.9994484850637 -2.821471627572 0.9994484850637 -2.821471627572 0.0262608901503 86.421515122009
1.540000000000000 0.0266062432811 86.469533878554 0.9994372314298 -2.858539029444 0.9994372314298 -2.858539029444 0.0266055877507 86.392012092968
1.560000000000000 0.0269509258418 86.440488471368 0.9994258616227 -2.895605551877 0.9994258616227 -2.895605551877 0.0269502712758 86.362504524815
1.580000000000000 0.0272955938904 86.411437737806 0.9994143756623 -2.932671188544 0.9994143756623 -2.932671188544 0.0272949404595 86.332992634874
1.600000000000000 0.0276402471651 86.382381921826 0.9994027735689 -2.969735933114 0.9994027735689 -2.969735933114 0.0276395950359 86.303476630299
1.620000000000000 0.0279848854041 86.353321256016 0.9993910553629 -3.006799779259 0.9993910553629 -3.006799779259 0.0279842347387 86.273956708706
1.640000000000000 0.0283295083457 86.324255962284 0.9993792210650 -3.043862720652 0.9993792210650 -3.043862720652 0.0283288593021 86.244433058747
1.660000000000000 0.0286741157282 86.295186252504 0.9993672706961 -3.080924750965 0.9993672706961 -3.080924750965 0.0286734684600 86.214905860654
1.680000000000000 0.0290187072900 86.266112329107 0.9993552042775 -3.117985863871 0.9993552042775 -3.117985863871 0.0290180619464 86.185375286738
1.700000000000000 0.0293632827694 86.237034385643 0.9993430218305 -3.155046053045 0.9993430218305 -3.155046053045 0.0293626394955 86.155841501853
1.720000000000000 0.0297078419047 86.207952607287 0.9993307233769 -3.192105312160 0.9993307233769 -3.192105312160 0.0297072008412 86.126304663832
1.740000000000000 0.0300523844344 86.178867171334 0.9993183089385 -3.229163634892 0.9993183089385 -3.229163634892 0.0300517457179 86.096764923887
1.760000000000000 0.0303969100970 86.149778247632 0.9993057785374 -3.266221014917 0.9993057785374 -3.266221014917 0.0303962738595 86.067222426987
1.780000000000000 0.0307414186308 86.120685999004 0.9992931321962 -3.303277445911 0.9992931321962 -3.303277445911 0.0307407850003 86.037677312209
1.800000000000000 0.0310859097745 86.091590581645 0.9992803699373 -3.340332921553 0.9992803699373 -3.340332921553 0.0310852788745 86.008129713060
1.820000000000000 0.0314303832665 86.062492145479 0.9992674917837 -3.377387435521 0.9992674917837 -3.377387435521 0.0314297552164 85.978579757789
1.840000000000000 0.0317748388455 86.033390834498 0.9992544977585 -3.414440981494 0.9992544977585 -3.414440981494 0.0317742137602 85.949027569670
1.860000000000000 0.0321192762500 86.004286787085 0.9992413878851 -3.451493553153 0.9992413878851 -3.451493553153 0.0321186542403 85.919473267267
1.880000000000000 0.0324636952187 85.975180136311 0.9992281621871 -3.488545144180 0.9992281621871 -3.488545144180 0.0324630763911 85.889916964687
1.900000000000000 0.0328080954904 85.946071010214 0.9992148206882 -3.525595748257 0.9992148206882 -3.525595748257 0.0328074799469 85.860358771815
1.920000000000000 0.0331524768036 85.916959532058 0.9992013634127 -3.562645359068 0.9992013634127 -3.562645359068 0.0331518646423 85.830798794529
1.940000000000000 0.0334968388973 85.887845820585 0.9991877903848 -3.599693970298 0.9991877903848 -3.599693970298 0.0334962302117 85.801237134914
1.960000000000000 0.0338411815102 85.858729990237 0.9991741016291 -3.636741575632 0.9991741016291 -3.636741575632 0.0338405763896 85.771673891447
1.980000000000000 0.0341855043813 85.829612151383 0.9991602971704 -3.673788168760 0.9991602971704 -3.673788168760 0.0341849029107 85.742109159183
2.000000000000000 0.0345298072493 85.800492410514 0.9991463770338 -3.710833743369 0.9991463770338 -3.710833743369 0.0345292095095 85.712543029929
2.020000000000000 0.0348740898533 85.771370870437 0.9991323412445 -3.747878293149 0.9991323412445 -3.747878293149 0.0348734959208 85.682975592399
2.040000000000000 0.0352183519322 85.742247630462 0.9991181898282 -3.784921811793 0.9991181898282 -3.784921811793 0.0352177618792 85.653406932367
2.060000000000000 0.0355625932252 85.713122786558 0.9991039228105 -3.821964292993 0.9991039228105 -3.821964292993 0.0355620071196 85.623837132812
2.080000000000000 0.0359068134713 85.683996431528 0.9990895402176 -3.859005730444 0.9990895402176 -3.859005730444 0.0359062313767 85.594266274052
2.100000000000000 0.0362510124096 85.654868655147 0.9990750420756 -3.896046117842 0.9990750420756 -3.896046117842 0.0362504343855 85.564694433865
2.120000000000000 0.0365951897795 85.625739544316 0.9990604284112 -3.933085448885 0.9990604284112 -3.933085448885 0.0365946158808 85.535121687618
2.140000000000000 0.0369393453200 85.596609183188 0.9990456992509 -3.970123717272 0.9990456992509 -3.970123717272 0.0369387755977 85.505548108369
2.160000000000000 0.0372834787707 85.567477653300 0.9990308546219 -4.007160916703 0.9990308546219 -4.007160916703 0.0372829132711 85.475973766984
2.180000000000000 0.0376275898707 85.538345033685 0.9990158945514 -4.044197040884 0.9990158945514 -4.044197040884 0.0376270286363 85.446398732230
2.200000000000000 0.0379716783596 85.509211400997 0.9990008190667 -4.081232083516 0.9990008190667 -4.081232083516 0.0379711214282 85.416823070873
2.220000000000000 0.0383157439768 85.480076829612 0.9989856281958 -4.118266038308 0.9989856281958 -4.118266038308 0.0383151913823 85.387246847767
2.240000000000000 0.0386597864619 85.450941391726 0.9989703219664 -4.155298898968 0.9989703219664 -4.155298898968 0.0386592382336 85.357670125942
2.260000000000000 0.0390038055545 85.421805157457 0.9989549004068 -4.192330659205 0.9989549004068 -4.192330659205 0.0390032617177 85.328092966683
2.280000000000000 0.0393478009942 85.392668194938 0.9989393635455 -4.229361312732 0.9989393635455 -4.229361312732 0.0393472615698 85.298515429603
2.300000000000000 0.0396917725208 85.363530570391 0.9989237114111 -4.266390853264 0.9989237114111 -4.266390853264 0.0396912375254 85.268937572720
2.320000000000000 0.0400357198741 85.334392348228 0.9989079440325 -4.303419274516 0.9989079440325 -4.303419274516 0.0400351893201 85.239359452527
2.340000000000000 0.0403796427939 85.305253591106 0.9988920614390 -4.340446570208 0.9988920614390 -4.340446570208 0.0403791166894 85.209781124050
2.360000000000000 0.0407235410201 85.276114360024 0.9988760636598 -4.377472734059 0.9988760636598 -4.377472734059 0.0407230193691 85.180202640916
2.380000000000000 0.0410674142929 85.246974714374 0.9988599507247 -4.414497759793 0.9988599507247 -4.414497759793 0.0410668970948 85.150624055412
2.400000000000000 0.0414112623521 85.217834712017 0.9988437226636 -4.451521641135 0.9988437226636 -4.451521641135 0.0414107496023 85.121045418534
2.420000000000000 0.0417550849380 85.188694409348 0.9988273795065 -4.488544371813 0.9988273795065 -4.488544371813 0.0417545766276 85.091466780050
2.440000000000000 0.0420988817908 85.159553861348 0.9988109212838 -4.525565945555 0.9988109212838 -4.525565945555 0.0420983779066 85.061888188541
2.460000000000000 0.0424426526507 85.130413121647 0.9987943480262 -4.562586356095 0.9987943480262 -4.562586356095 0.0424421531753 85.032309691455
2.480000000000000 0.0427863972581 85.101272242578 0.9987776597644 -4.599605597167 0.9987776597644 -4.599605597167 0.0427859021697 85.002731335150
2.500000000000000 0.0431301153534 85.072131275227 0.9987608565296 -4.636623662507 0.9987608565296 -4.636623662507 0.0431296246261 84.973153164940
2.520000000000000 0.0434738066772 85.042990269483 0.9987439383531 -4.673640545857 0.9987439383531 -4.673640545857 0.0434733202808 84.943575225131
2.540000000000000 0.0438174709699 85.013849274103 0.9987269052664 -4.710656240957 0.9987269052664 -4.710656240957 0.0438169888700 84.913997559060
2.560000000000000 0.0441600936999 84.971026087430 0.9987097573014 -4.747670741554 0.9987097573014 -4.747670741554 0.0441595670227 84.870054704631
2.580000000000000 0.0445027045148 84.928410993938 0.9986924944901 -4.784684041393 0.9986924944901 -4.784684041393 0.0445021341747 84.826330514980
2.600000000000000 0.0448453031034 84.885999276997 0.9986751168647 -4.821696134227 0.9986751168647 -4.821696134227 0.0448446900047 84.782820033740
2.620000000000000 0.0451878891560 84.843786363453 0.9986576244579 -4.858707013808 0.9986576244579 -4.858707013808 0.0451872341936 84.739518455222
2.640000000000000 0.0455304623646 84.801767818207 0.9986400173024 -4.895716673891 0.9986400173024 -4.895716673891 0.0455297664238 84.696421118757
2.660000000000000 0.0458730224229 84.759939339066 0.9986222954311 -4.932725108236 0.9986222954311 -4.932725108236 0.0458722863796 84.653523503282
2.680000000000000 0.0462155690259 84.718296751815 0.9986044588773 -4.969732310604 0.9986044588773 -4.969732310604 0.0462147937470 84.610821222171
2.700000000000000 0.0465581018702 84.676836005511 0.9985865076745 -5.006738274760 0.9985865076745 -5.006738274760 0.0465572882137 84.568310018290
2.720000000000000 0.0469006206540 84.635553167981 0.9985684418564 -5.043742994472 0.9985684418564 -5.043742994472 0.0468997694687 84.525985759268
2.740000000000000 0.0472431250766 84.594444421513 0.9985502614569 -5.080746463510 0.9985502614569 -5.080746463510 0.0472422372029 84.483844432978
2.760000000000000 0.0475856148388 84.553506058739 0.9985319665103 -5.117748675648 0.9985319665103 -5.117748675648 0.0475846911083 84.441882143206
2.780000000000000 0.0479280896427 84.512734478692 0.9985135570510 -5.154749624664 0.9985135570510 -5.154749624664 0.0479271308786 84.400095105517
2.800000000000000 0.0482705491915 84.472126183030 0.9984950331135 -5.191749304337 0.9984950331135 -5.191749304337 0.0482695562087 84.358479643281
2.820000000000000 0.0486129931898 84.431677772416 0.9984763947330 -5.228747708450 0.9984763947330 -5.228747708450 0.0486119667950 84.317032183885
2.840000000000000 0.0489554213433 84.391385943059 0.9984576419444 -5.265744830791 0.9984576419444 -5.265744830791 0.0489543623350 84.275749255087
2.860000000000000 0.0492978333588 84.351247483393 0.9984387747832 -5.302740665149 0.9984387747832 -5.302740665149 0.0492967425276 84.234627481535
2.880000000000000 0.0496402289442 84.311259270895 0.9984197932850 -5.339735205318 0.9984197932850 -5.339735205318 0.0496391070728 84.193663581421
2.900000000000000 0.0499826078086 84.271418269028 0.9984006974855 -5.376728445095 0.9984006974855 -5.376728445095 0.0499814556718 84.152854363277
2.920000000000000 0.0503249696619 84.231721524322 0.9983814874210 -5.413720378280 0.9983814874210 -5.413720378280 0.0503237880270 84.112196722903
2.940000000000000 0.0506673142151 84.192166163563 0.9983621631278 -5.450710998677 0.9983621631278 -5.450710998677 0.0506661038417 84.071687640415
2.960000000000000 0.0510096411804 84.152749391095 0.9983427246423 -5.487700300093 0.9983427246423 -5.487700300093 0.0510084028206 84.031324177418
2.980000000000000 0.0513519502705 84.113468486236 0.9983231720015 -5.524688276339 0.9983231720015 -5.524688276339 0.0513506846691 83.991103474284
3.000000000000000 0.0516942411994 84.074320800792 0.9983035052422 -5.561674921231 0.9983035052422 -5.561674921231 0.0516929490938 83.951022747542
3.020000000000000 0.0520365136818 84.035303756671 0.9982837244019 -5.598660228586 0.9982837244019 -5.598660228586 0.0520351958022 83.911079287381
3.040000000000000 0.0523787674333 83.996414843592 0.9982638295179 -5.635644192226 0.9982638295179 -5.635644192226 0.0523774245027 83.871270455228
3.060000000000000 0.0527210021704 83.957651616878 0.9982438206281 -5.672626805978 0.9982438206281 -5.672626805978 0.0527196349049 83.831593681446
3.080000000000000 0.0530632176103 83.919011695344 0.9982236977703 -5.709608063671 0.9982236977703 -5.709608063671 0.0530618267188 83.792046463102
3.100000000000000 0.0534054134710 83.880492759252 0.9982034609829 -5.746587959139 0.9982034609829 -5.746587959139 0.0534039996558 83.752626361830
3.120000000000000 0.0537475894716 83.842092548360 0.9981831103042 -5.783566486220 0.9981831103042 -5.783566486220 0.0537461534277 83.713331001774
3.140000000000000 0.0540897453314 83.803808860034 0.9981626457729 -5.820543638755 0.9981626457729 -5.820543638755 0.0540882877475 83.674158067610
3.160000000000000 0.0544318807708 83.765639547437 0.9981420674279 -5.857519410590 0.9981420674279 -5.857519410590 0.0544304023286 83.635105302637
3.180000000000000 0.0547739955109 83.727582517781 0.9981213753084 -5.894493795574 0.9981213753084 -5.894493795574 0.0547724968856 83.596170506949
3.200000000000000 0.0551160892735 83.689635730650 0.9981005694537 -5.931466787561 0.9981005694537 -5.931466787561 0.0551145711336 83.557351535669
3.220000000000000 0.0554581617808 83.651797196381 0.9980796499034 -5.968438380410 0.9980796499034 -5.968438380410 0.0554566247884 83.518646297246
3.240000000000000 0.0558002127560 83.614064974506 0.9980586166974 -6.005408567982 0.9980586166974 -6.005408567982 0.0557986575667 83.480052751825
3.260000000000000 0.0561422419228 83.576437172250 0.9980374698757 -6.042377344145 0.9980374698757 -6.042377344145 0.0561406691858 83.441568909662
3.280000000000000 0.0564842490055 83.538911943085 0.9980162094787 -6.079344702768 0.9980162094787 -6.079344702768 0.0564826593638 83.403192829611
3.300000000000000 0.0568262337291 83.501487485337 0.9979948355468 -6.116310637727 0.9979948355468 -6.116310637727 0.0568246278193 83.364922617657
3.320000000000000 0.0571681958192 83.464162040840 0.9979733481208 -6.153275142901 0.9979733481208 -6.153275142901 0.0571665742717 83.326756425502
3.340000000000000 0.0575101350020 83.426933893642 0.9979517472418 -6.190238212174 0.9979517472418 -6.190238212174 0.0575084984408 83.288692449208
3.360000000000000 0.0578520510041 83.389801368753 0.9979300329509 -6.227199839436 0.9979300329509 -6.227199839436 0.0578504000474 83.250728927880
3.380000000000000 0.0581939435528 83.352762830938 0.9979082052896 -6.264160018578 0.9979082052896 -6.264160018578 0.0581922788127 83.212864142399
3.400000000000000 0.0585358123759 83.315816683560 0.9978862642996 -6.301118743498 0.9978862642996 -6.301118743498 0.0585341344584 83.175096414203
3.420000000000000 0.0588776572020 83.278961367449 0.9978642100228 -6.338076008099 0.9978642100228 -6.338076008099 0.0588759667070 83.137424104105
3.440000000000000 0.0592194777597 83.242195359821 0.9978420425013 -6.375031806287 0.9978420425013 -6.375031806287 0.0592177752813 83.099845611153
3.460000000000000 0.0595612737787 83.205517173232 0.9978197617775 -6.411986131974 0.9978197617775 -6.411986131974 0.0595595599050 83.062359371532
3.480000000000000 0.0599030449887 83.168925354571 0.9977973678941 -6.448938979076 0.9977973678941 -6.448938979076 0.0599013203021 83.024963857505
3.500000000000000 0.0602447911202 83.132418484074 0.9977748608937 -6.485890341514 0.9977748608937 -6.485890341514 0.0602430561972 82.987657576381
3.520000000000000 0.0605865119041 83.095995174390 0.9977522408196 -6.522840213215 0.9977522408196 -6.522840213215 0.0605847673155 82.950439069528
3.540000000000000 0.0609282070718 83.059654069668 0.9977295077150 -6.559788588108 0.9977295077150 -6.559788588108 0.0609264533825 82.913306911417
3.560000000000000 0.0612698763551 83.023393844671 0.9977066616233 -6.596735460130 0.9977066616233 -6.596735460130 0.0612681141244 82.876259708693
3.580000000000000 0.0616115194863 82.987213203928 0.9976837025884 -6.633680823222 0.9976837025884 -6.633680823222 0.0616097492680 82.839296099285
3.600000000000000 0.0619531361982 82.951110880918 0.9976606306542 -6.670624671329 0.9976606306542 -6.670624671329 0.0619513585402 82.802414751534
3.620000000000000 0.0622947262240 82.915085637259 0.9976374458649 -6.707566998403 0.9976374458649 -6.707566998403 0.0622929416688 82.765614363365
3.640000000000000 0.0626362892973 82.879136261951 0.9976141482649 -6.744507798399 0.9976141482649 -6.744507798399 0.0626344983817 82.728893661475
3.660000000000000 0.0629778251521 82.843261570625 0.9975907378989 -6.781447065278 0.9975907378989 -6.781447065278 0.0629760284076 82.692251400545
3.680000000000000 0.0633193335229 82.807460404826 0.9975672148117 -6.818384793007 0.9975672148117 -6.818384793007 0.0633175314754 82.655686362492
3.700000000000000 0.0636608141446 82.771731631310 0.9975435790483 -6.855320975557 0.9975435790483 -6.855320975557 0.0636590073146 82.619197355731
3.720000000000000 0.0640022667526 82.736074141375 0.9975198306543 -6.892255606906 0.9975198306543 -6.892255606906 0.0640004556550 82.582783214467
3.740000000000000 0.0643436910824 82.700486850206 0.9974959696750 -6.929188681035 0.9974959696750 -6.929188681035 0.0643418762269 82.546442798007
3.760000000000000 0.0646850868702 82.664968696241 0.9974719961562 -6.966120191933 0.9974719961562 -6.966120191933 0.0646832687611 82.510174990098
3.780000000000000 0.0650264538524 82.629518640557 0.9974479101440 -7.003050133591 0.9974479101440 -7.003050133591 0.0650246329886 82.473978698282
3.800000000000000 0.0653677917660 82.594135666282 0.9974237116846 -7.039978500009 0.9974237116846 -7.039978500009 0.0653659686411 82.437852853270
3.820000000000000 0.0657091003481 82.558818778014 0.9973994008243 -7.076905285191 0.9973994008243 -7.076905285191 0.0657072754505 82.401796408345
3.840000000000000 0.0660503793363 82.523567001269 0.9973749776099 -7.113830483147 0.9973749776099 -7.113830483147 0.0660485531491 82.365808338768
3.860000000000000 0.0663916284686 82.488379381936 0.9973504420881 -7.150754087891 0.9973504420881 -7.150754087891 0.0663898014697 82.329887641215
3.880000000000000 0.0667328474834 82.453254985761 0.9973257943062 -7.187676093444 0.9973257943062 -7.187676093444 0.0667310201454 82.294033333231
3.900000000000000 0.0670740361193 82.418192897831 0.9973010343115 -7.224596493833 0.9973010343115 -7.224596493833 0.0670722089097 82.258244452689
3.920000000000000 0.0674151941153 82.383192222092 0.9972761621514 -7.261515283091 0.9972761621514 -7.261515283091 0.0674133674965 82.222520057282
3.940000000000000 0.0677563212109 82.348252080863 0.9972511778738 -7.298432455255 0.9972511778738 -7.298432455255 0.0677544956401 82.186859224013
3.960000000000000 0.0680974171458 82.313371614382 0.9972260815266 -7.335348004369 0.9972260815266 -7.335348004369 0.0680955930751 82.151261048720
3.980000000000000 0.0684384816600 82.278549980349 0.9972008731580 -7.372261924483 0.9972008731580 -7.372261924483 0.0684366595365 82.115724645594
4.000000000000000 0.0687795144940 82.243786353499 0.9971755528165 -7.409174209652 0.9971755528165 -7.409174209652 0.0687776947595 82.080249146728
4.020000000000000 0.0691205153884 82.209079925177 0.9971501205506 -7.446084853938 0.9971501205506 -7.446084853938 0.0691186984800 82.044833701674
4.040000000000000 0.0694614840844 82.174429902923 0.9971245764093 -7.482993851410 0.9971245764093 -7.482993851410 0.0694596704339 82.009477477007
4.060000000000000 0.0698024203233 82.139835510084 0.9970989204417 -7.519901196139 0.9970989204417 -7.519901196139 0.0698006103577 81.974179655912
4.080000000000000 0.0701433238469 82.105295985419 0.9970731526969 -7.556806882207 0.9970731526969 -7.556806882207 0.0701415179881 81.938939437779
4.100000000000001 0.0704841943971 82.070810582731 0.9970472732246 -7.593710903699 0.9970472732246 -7.593710903699 0.0704823930621 81.903756037805
4.120000000000000 0.0708250317163 82.036378570499 0.9970212820744 -7.630613254706 0.9970212820744 -7.630613254706 0.0708232353172 81.868628686615