! Sonnet Data File
! From: sonnet Version : 18.53-Lite
! From Emgraph Data: 
! Data File Written: 04/08/2024 17:28:54
!< HDATE 04/08/2024 17:28:28
!< MDATE 04/08/2024 17:28:28
# GHZ S MA R 50.00000
0.100000000000000 0.3333488456462 -179.8637151440 0.6665724680813 -0.395253808969 0.6668387864928 0.8130683349514
                  0.6665724680813 -0.395253808971 0.3333563915545 -179.7882133362 0.6668476903122 0.8508116164357
                  0.6668387864928 0.8130683349527 0.6668476903122 0.8508116164345 0.3338580537578 -177.3744129912
0.120000000000000 0.3333317424369 -179.8379996252 0.6665878518486 -0.472378976304 0.6668399840493 0.9731375625647
                  0.6665878518486 -0.472378976304 0.3333392488871 -179.7476783277 0.6668496745528 1.0183211717822
                  0.6668399840493 0.9731375625647 0.6668496745528 1.0183211717822 0.3339291429426 -176.8601606814
0.140000000000000 0.3333119660474 -179.8122939083 0.6666068792028 -0.549484987572 0.6668386928830 1.1331925700812
                  0.6666068792028 -0.549484987572 0.3333193699446 -179.7071502785 0.6668491945998 1.1858160612405
                  0.6668386928830 1.1331925700812 0.6668491945998 1.1858160612405 0.3340091547118 -176.3461027160
0.160000000000000 0.3332895142841 -179.7866002930 0.6666295496641 -0.626569160674 0.6668349169661 1.2932322100889
                  0.6666295496641 -0.626569160674 0.3332967521673 -179.6666314622 0.6668462545604 1.3532951375750
                  0.6668349169661 1.2932322100889 0.6668462545604 1.3532951375750 0.3340980758479 -175.8322607049
0.180000000000000 0.3332643850859 -179.7609210836 0.6666558624542 -0.703628813213 0.6668286603757 1.4532553373047
                  0.6666558624542 -0.703628813213 0.3332713931332 -179.6261241582 0.6668408586448 1.5207572556913
                  0.6668286603757 1.4532553373047 0.6668408586448 1.5207572556913 0.3341958918895 -175.3186561716
0.200000000000000 0.3332365765241 -179.7352585892 0.6666858164959 -0.780661262940 0.6668199272930 1.6132608086292
                  0.6666858164959 -0.780661262940 0.3332432905592 -179.5856306509 0.6668330111663 1.6882012726909
                  0.6668199272930 1.6132608086292 0.6668330111663 1.6882012726909 0.3343025871381 -174.8053105457
0.220000000000000 0.3332060868037 -179.7096151237 0.6667194104127 -0.857663828200 0.6668087220030 1.7732474832020
                  0.6667194104127 -0.857663828200 0.3332124423017 -179.5451532303 0.6668227165402 1.8556260479261
                  0.6668087220030 1.7732474832020 0.6668227165402 1.8556260479261 0.3344181446655 -174.2922451556
0.240000000000000 0.3331729142633 -179.6839930056 0.6667566425286 -0.934633828378 0.6667950488942 1.9332142224565
                  0.6667566425286 -0.934633828378 0.3331788463568 -179.5046941916 0.6668099792834 2.0230304430539
                  0.6667950488942 1.9332142224565 0.6668099792834 2.0230304430539 0.3345425463221 -173.7794812207
0.260000000000000 0.3331370573761 -179.6583945579 0.6667975108682 -1.011568584347 0.6667789124578 2.0931598901743
                  0.6667975108682 -1.011568584347 0.3331425008614 -179.4642558351 0.6667948040144 2.1904133220906
                  0.6667789124578 2.0931598901743 0.6667948040144 2.1904133220906 0.3346757727450 -173.2670398448
0.280000000000000 0.3330985147501 -179.6328221082 0.6668420131564 -1.088465418913 0.6667603172872 2.2530833525392
                  0.6668420131564 -1.088465418913 0.3331034040933 -179.4238404663 0.6667771954522 2.3577735514649
                  0.6667603172872 2.2530833525392 0.6667771954522 2.3577735514649 0.3348178033674 -172.7549420083
0.300000000000000 0.3330572851290 -179.6072779885 0.6668901468186 -1.165321657260 0.6667392680779 2.4129834781911
                  0.6668901468186 -1.165321657260 0.3330615544719 -179.3834503957 0.6667571584162 2.5251100000715
                  0.6667392680779 2.4129834781911 0.6667571584162 2.5251100000715 0.3349686164280 -172.2432085616
0.320000000000000 0.3330133673921 -179.5817645353 0.6669419089805 -1.242134627402 0.6667157696266 2.5728591382792
                  0.6669419089805 -1.242134627402 0.3330169505589 -179.3430879387 0.6667346978255 2.6924215393241
                  0.6667157696266 2.5728591382792 0.6667346978255 2.6924215393241 0.3351281889811 -171.7318602179
0.340000000000000 0.3329667605554 -179.5562840894 0.6669972964684 -1.318901660620 0.6666898268306 2.7327092065154
                  0.6669972964684 -1.318901660620 0.3329695910587 -179.3027554155 0.6667098186983 2.8597070432077
                  0.6666898268306 2.7327092065154 0.6667098186983 2.8597070432077 0.3352964969074 -171.2209175467
0.360000000000000 0.3329174637718 -179.5308389958 0.6670563058093 -1.395620091916 0.6666614446878 2.8925325592264
                  0.6670563058093 -1.395620091916 0.3329194748187 -179.2624551512 0.6666825261515 3.0269653883311
                  0.6666614446878 2.8925325592264 0.6666825261515 3.0269653883311 0.3354735149246 -170.7104009666
0.380000000000000 0.3328654763314 -179.5054316040 0.6671189332313 -1.472287260451 0.6666306282955 3.0523280754068
                  0.6671189332313 -1.472287260451 0.3328666008300 -179.2221894755 0.6666528254000 3.1941954539790
                  0.6666306282955 3.0523280754068 0.6666528254000 3.1941954539790 0.3356592165992 -170.2003307395
0.400000000000000 0.3328107976623 -179.4800642672 0.6671851746637 -1.548900509990 0.6665973828502 3.2120946367702
                  0.6671851746637 -1.548900509990 0.3328109682278 -179.1819607227 0.6666207217564 3.3613961221628
                  0.6665973828502 3.2120946367702 0.6666207217564 3.3613961221628 0.3358535743585 -169.6907269635
0.420000000000000 0.3327534273307 -179.4547393432 0.6672550257376 -1.625457189346 0.6665617136470 3.3718311278015
                  0.6672550257376 -1.625457189346 0.3327525762920 -179.1417712315 0.6665862206299 3.5285662776726
                  0.6665617136470 3.3718311278015 0.6665862206299 3.5285662776726 0.3360565595032 -169.1816095672
0.440000000000000 0.3326933650415 -179.4294591934 0.6673284817862 -1.701954652819 0.6665236260790 3.5315364358075
                  0.6673284817862 -1.701954652819 0.3326914244473 -179.1016233452 0.6665493275265 3.6957048081271
                  0.6665236260790 3.5315364358075 0.6665493275265 3.6957048081271 0.3362681422197 -168.6729983031
0.460000000000000 0.3326306106387 -179.4042261833 0.6674055378452 -1.778390260635 0.6664831256367 3.6912094509682
                  0.6674055378452 -1.778390260635 0.3326275122637 -179.0615194114 0.6665100480475 3.8628106040246
                  0.6664831256367 3.6912094509682 0.6665100480475 3.8628106040246 0.3364882915942 -168.1649127420
0.480000000000000 0.3325651641058 -179.3790426824 0.6674861886536 -1.854761379388 0.6664402179073 3.8508490663866
                  0.6674861886536 -1.854761379388 0.3325608394572 -179.0214617817 0.6664683878898 4.0298825587927
                  0.6664402179073 3.8508490663866 0.6664683878898 4.0298825587927 0.3367169756255 -167.6573722673
0.500000000000000 0.3324970255660 -179.3539110638 0.6675704286543 -1.931065382470 0.6663949085742 4.0104541781395
                  0.6675704286543 -1.931065382470 0.3324914058899 -178.9814528121 0.6664243528445 4.1969195688378
                  0.6663949085742 4.0104541781395 0.6664243528445 4.1969195688378 0.3369541612400 -167.1503960690
0.520000000000000 0.3324261952827 -179.3288337045 0.6676582519945 -2.007299650511 0.6663472034165 4.1700236853262
                  0.6676582519945 -2.007299650511 0.3324192115702 -178.9414948625 0.6663779487968 4.3639205335942
                  0.6663472034165 4.1700236853262 0.6663779487968 4.3639205335942 0.3371998143057 -166.6440031383
0.540000000000000 0.3323526736601 -179.3038129852 0.6677496525269 -2.083461571808 0.6662971083082 4.3295564901183
                  0.6677496525269 -2.083461571808 0.3323442566535 -178.9015902969 0.6663291817252 4.5308843555731
                  0.6662971083082 4.3295564901183 0.6663291817252 4.5308843555731 0.3374538996469 -166.1382122628
0.560000000000000 0.3322764612428 -179.2788512901 0.6678446238101 -2.159548542758 0.6662446292174 4.4890514978081
                  0.6678446238101 -2.159548542758 0.3322665414423 -178.8617414831 0.6662780577006 4.6978099404106
                  0.6662446292174 4.4890514978081 0.6662780577006 4.6978099404106 0.3377163810600 -165.6330420206
0.580000000000000 0.3321975587171 -179.2539510069 0.6679431591097 -2.235557968280 0.6661897722062 4.6485076168572
                  0.6679431591097 -2.235557968280 0.3321860663866 -178.8219507925 0.6662245828863 4.8646961969158
                  0.6661897722062 4.6485076168572 0.6662245828863 4.8646961969158 0.3379872213285 -165.1285107760
0.600000000000000 0.3321159669102 -179.2291145268 0.6680452513994 -2.311487262249 0.6661325434294 4.8079237589442
                  0.6680452513994 -2.311487262249 0.3321028320840 -178.7822206003 0.6661687635367 5.0315420371182
                  0.6661325434294 4.8079237589442 0.6661687635367 5.0315420371182 0.3382663822392 -164.6246366745
0.620000000000000 0.3320316867917 -179.2043442444 0.6681508933616 -2.387333847910 0.6660729491344 4.9672988390123
                  0.6681508933616 -2.387333847910 0.3320168392804 -178.7425532855 0.6661106059968 5.1983463763148
                  0.6660729491344 4.9672988390123 0.6661106059968 5.1983463763148 0.3385538245983 -164.1214376381
0.640000000000000 0.3319447194726 -179.1796425575 0.6682600773888 -2.463095158303 0.6660109956600 5.1266317753160
                  0.6682600773888 -2.463095158303 0.3319280888694 -178.7029512301 0.6660501167019 5.3651081331163
                  0.6660109956600 5.1266317753160 0.6660501167019 5.3651081331163 0.3388495082480 -163.6189313610
0.660000000000000 0.3318550662067 -179.1550118673 0.6683727955844 -2.538768636679 0.6659466894364 5.2859214894683
                  0.6683727955844 -2.538768636679 0.3318365818936 -178.6634168198 0.6659873021763 5.5318262294939
                  0.6659466894364 5.2859214894683 0.6659873021763 5.5318262294939 0.3391533920830 -163.1171353054
0.680000000000000 0.3317627283900 -179.1304545779 0.6684890397643 -2.614351736913 0.6658800369837 5.4451669064863
                  0.6684890397643 -2.614351736913 0.3317423195439 -178.6239524435 0.6659221690332 5.6984995908246
                  0.6658800369837 5.4451669064863 0.6659221690332 5.6984995908246 0.3394654340681 -162.6160666974
0.700000000000000 0.3316677075613 -179.1059730967 0.6686088014578 -2.689841923913 0.6658110449118 5.6043669548369
                  0.6686088014578 -2.689841923913 0.3316453031603 -178.5845604934 0.6658547239736 5.8651271459363
                  0.6658110449118 5.6043669548369 0.6658547239736 5.8651271459363 0.3397855912549 -162.1157425231
0.720000000000000 0.3315700054025 -179.0815698338 0.6687320719092 -2.765236674032 0.6657397199195 5.7635205664823
                  0.6687320719092 -2.765236674032 0.3315455342315 -178.5452433645 0.6657849737857 6.0317078271529
                  0.6657397199195 5.7635205664823 0.6657849737857 6.0317078271529 0.3401138197996 -161.6161795252
0.740000000000000 0.3314696237383 -179.0572472024 0.6688588420789 -2.840533475467 0.6656660687939 5.9226266769249
                  0.6688588420789 -2.840533475467 0.3314430143956 -178.5060034549 0.6657129253444 6.1982405703388
                  0.6656660687939 5.9226266769249 0.6657129253444 6.1982405703388 0.3404500749808 -161.1173941991
0.760000000000000 0.3313665645371 -179.0330076185 0.6689891026448 -2.915729828660 0.6655900984093 6.0816842252509
                  0.6689891026448 -2.915729828660 0.3313377454399 -178.4668431657 0.6656385856101 6.3647243149420
                  0.6655900984093 6.0816842252509 0.6656385856101 6.3647243149420 0.3407943112177 -160.6194027900
0.780000000000000 0.3312608299104 -179.0088535007 0.6691228440042 -2.990823246695 0.6655118157272 6.2406921541749
                  0.6691228440042 -2.990823246695 0.3312297293012 -178.4277649007 0.6655619616286 6.5311580040385
                  0.6655118157272 6.2406921541749 0.6655619616286 6.5311580040385 0.3411464820876 -160.1222212896
0.800000000000000 0.3311524221135 -178.9847872704 0.6692600562747 -3.065811255692 0.6654312277946 6.3996494100827
                  0.6692600562747 -3.065811255692 0.3311189680654 -178.3887710661 0.6654830605299 6.6975405843743
                  0.6654312277946 6.3996494100827 0.6654830605299 6.6975405843743 0.3415065403451 -159.6258654331
0.820000000000000 0.3310413435452 -178.9608113514 0.6694007292964 -3.140691395191 0.6653483417442 6.5585549430744
                  0.6694007292964 -3.140691395191 0.3310054639684 -178.3498640711 0.6654018895275 6.8638710064086
                  0.6653483417442 6.5585549430744 0.6654018895275 6.8638710064086 0.3418744379397 -159.1303506968
0.840000000000000 0.3309275967484 -178.9369281701 0.6695448526332 -3.215461218540 0.6652631647930 6.7174077070070
                  0.6695448526332 -3.215461218540 0.3308892193954 -178.3110463270 0.6653184559178 7.0301482243552
                  0.6652631647930 6.7174077070070 0.6653184559178 7.0301482243552 0.3422501260355 -158.6356922952
0.860000000000000 0.3308111844095 -178.9131401552 0.6696924155746 -3.290118293272 0.6651757042419 6.8762066595359
                  0.6696924155746 -3.290118293272 0.3307702368811 -178.2723202476 0.6652327670793 7.1963711962246
                  0.6651757042419 6.8762066595359 0.6652327670793 7.1963711962246 0.3426335550289 -158.1419051788
0.880000000000000 0.3306921093592 -178.8894497377 0.6698434071376 -3.364660201483 0.6650859674748 7.0349507621566
                  0.6698434071376 -3.364660201483 0.3306485191102 -178.2336882489 0.6651448304720 7.3625388838641
                  0.6650859674748 7.0349507621566 0.6651448304720 7.3625388838641 0.3430246745684 -157.6490040322
0.900000000000000 0.3305703745721 -178.8658593508 0.6699978160681 -3.439084540201 0.6649939619578 7.1936389802453
                  0.6699978160681 -3.439084540201 0.3305240689167 -178.1951527491 0.6650546536361 7.5286502529993
                  0.6649939619578 7.1936389802453 0.6650546536361 7.5286502529993 0.3434234335730 -157.1570032716
0.920000000000000 0.3304459831667 -178.8423714298 0.6701556308434 -3.513388921751 0.6648996952385 7.3522702830999
                  0.6701556308434 -3.513388921751 0.3303968892840 -178.1567161684 0.6649622441920 7.6947042732735
                  0.6648996952385 7.3522702830999 0.6649622441920 7.6947042732735 0.3438297802517 -156.6659170435
0.940000000000000 0.3303189384056 -178.8189884122 0.6703168396736 -3.587570974121 0.6648031749452 7.5108436439793
                  0.6703168396736 -3.587570974121 0.3302669833455 -178.1183809287 0.6648676098387 7.8606999182873
                  0.6648031749452 7.5108436439793 0.6648676098387 7.8606999182873 0.3442436621225 -156.1757592228
0.960000000000000 0.3301892436956 -178.7957127371 0.6704814305037 -3.661628341311 0.6647044087862 7.6693580401433
                  0.6704814305037 -3.661628341311 0.3301343543834 -178.0801494541 0.6647707583536 8.0266361656377
                  0.6647044087862 7.6693580401433 0.6647707583536 8.0266361656377 0.3446650260317 -155.6865434114
0.980000000000000 0.3300569025874 -178.7725468456 0.6706493910159 -3.735558683693 0.6646034045487 7.8278124528911
                  0.6706493910159 -3.735558683693 0.3299990058298 -178.0420241700 0.6646716975917 8.1925119969567
                  0.6646034045487 7.8278124528911 0.6646716975917 8.1925119969567 0.3450938181730 -155.1982829371
1.000000000000000 0.3299219187755 -178.7494931806 0.6708207086313 -3.809359678351 0.6645001700985 7.9862058676003
                  0.6708207086313 -3.809359678351 0.3298609412656 -178.0040075037 0.6645704354844 8.3583263979491
                  0.6645001700985 7.9862058676003 0.6645704354844 8.3583263979491 0.3455299841072 -154.7109908524
1.020000000000000 0.3297842960986 -178.7265541865 0.6709953705125 -3.883029019424 0.6643947133786 8.1445372737640
                  0.6709953705125 -3.883029019424 0.3297201644208 -177.9661018839 0.6644669800389 8.5240783584301
                  0.6643947133786 8.1445372737640 0.6644669800389 8.5240783584301 0.3459734687811 -154.2246799337
1.040000000000000 0.3296440385390 -178.7037323094 0.6711733635652 -3.956564418443 0.6642870424090 8.3028056650289
                  0.6711733635652 -3.956564418443 0.3295766791745 -177.9283097404 0.6643613393376 8.6897668723625
                  0.6642870424090 8.3028056650289 0.6643613393376 8.6897668723625 0.3464242165473 -153.7393626805
1.060000000000000 0.3295011502230 -178.6810299968 0.6713546744408 -4.029963604660 0.6641771652853 8.4610100392317
                  0.6713546744408 -4.029963604660 0.3294304895543 -177.8906335047 0.6642535215369 8.8553909378925
                  0.6641771652853 8.4610100392317 0.6642535215369 8.8553909378925 0.3468821711830 -153.2550513148
1.080000000000000 0.3293556354203 -178.6584496975 0.6715392895388 -4.103224325374 0.6640650901785 8.6191493984357
                  0.6715392895388 -4.103224325374 0.3292815997364 -177.8530756090 0.6641435348667 9.0209495573865
                  0.6640650901785 8.6191493984357 0.6641435348667 9.0209495573865 0.3473472759098 -152.7717577808
1.100000000000000 0.3292074985442 -178.6359938615 0.6717271950087 -4.176344346248 0.6639508253335 8.7772227489667
                  0.6717271950087 -4.176344346248 0.3291300140453 -177.8156384869 0.6640313876296 9.1864417374661
                  0.6639508253335 8.7772227489667 0.6640313876296 9.1864417374661 0.3478194734129 -152.2894937448
1.120000000000000 0.3290567441512 -178.6136649402 0.6719183767529 -4.249321451627 0.6638343790688 8.9352291014478
                  0.6719183767529 -4.249321451627 0.3289757369536 -177.7783245727 0.6639170881995 9.3518664890428
                  0.6638343790688 8.9352291014478 0.6639170881995 9.3518664890428 0.3482987058601 -151.8082705949
1.140000000000000 0.3289033769410 -178.5914653857 0.6721128204285 -4.322153444841 0.6637157597755 9.0931674708347
                  0.6721128204285 -4.322153444841 0.3288187730814 -177.7411363015 0.6638006450217 9.5172228273528
                  0.6637157597755 9.0931674708347 0.6638006450217 9.5172228273528 0.3487849149213 -151.3280994410
1.160000000000000 0.3287474017565 -178.5693976514 0.6723105114504 -4.394838148510 0.6635949759163 9.2510368764499
                  0.6723105114504 -4.394838148510 0.3286591271966 -177.7040761092 0.6636820666112 9.6825097719908
                  0.6635949759163 9.2510368764499 0.6636820666112 9.6825097719908 0.3492780417873 -150.8489911156
1.180000000000000 0.3285888235831 -178.5474641914 0.6725114349935 -4.467373404837 0.6634720360249 9.4088363420159
                  0.6725114349935 -4.467373404837 0.3284968042141 -177.6671464322 0.6635613615523 9.8477263469431
                  0.6634720360249 9.4088363420159 0.6635613615523 9.8477263469431 0.3497780271892 -150.3709561736
1.200000000000000 0.3284276475488 -178.5256674606 0.6727155759951 -4.539757075904 0.6633469487051 9.5665648956889
                  0.6727155759951 -4.539757075904 0.3283318091958 -177.6303497074 0.6634385384978 10.012871580620
                  0.6633469487051 9.5665648956889 0.6634385384978 10.012871580620 0.3502848114171 -149.8940048931
1.220000000000000 0.3282638789239 -178.5040099144 0.6729229191577 -4.611987043948 0.6632197226296 9.7242215700915
                  0.6729229191577 -4.611987043948 0.3281641473499 -177.5936883720 0.6633136061679 10.177944505890
                  0.6632197226296 9.7242215700915 0.6633136061679 10.177944505890 0.3507983343392 -149.4181472763
1.240000000000000 0.3280975231207 -178.4824940088 0.6731334489519 -4.684061211646 0.6630903665398 9.8818054023443
                  0.6731334489519 -4.684061211646 0.3279938240308 -177.5571648635 0.6631865733494 10.342944160109
                  0.6630903665398 9.8818054023443 0.6631865733494 10.342944160109 0.3513185354202 -148.9433930499
1.260000000000000 0.3279285856932 -178.4611222006 0.6733471496183 -4.755977502381 0.6629588892444 10.039315434098
                  0.6733471496183 -4.755977502381 0.3278208447388 -177.5207816195 0.6630574488952 10.507869585153
                  0.6629588892444 10.039315434098 0.6630574488952 10.507869585153 0.3518453537404 -148.4697516663
1.280000000000000 0.3277570723370 -178.4398969463 0.6735640051711 -4.827733860511 0.6628252996187 10.196750711563
                  0.6735640051711 -4.827733860511 0.3276452151194 -177.4845410775 0.6629262417227 10.672719827449
                  0.6628252996187 10.196750711563 0.6629262417227 10.672719827449 0.3523787280137 -147.9972323049
1.300000000000000 0.3275829888886 -178.4188207033 0.6737839994003 -4.899328251626 0.6626896066036 10.354110285544
                  0.6737839994003 -4.899328251626 0.3274669409629 -177.4484456750 0.6627929608139 10.837493938002
                  0.6626896066036 10.354110285544 0.6627929608139 10.837493938002 0.3529185966063 -147.5258438729
1.320000000000000 0.3274063413254 -178.3978959286 0.6740071158746 -4.970758662800 0.6625518192052 10.511393211464
                  0.6740071158746 -4.970758662800 0.3272860282043 -177.4124978492 0.6626576152136 11.002190972431
                  0.6625518192052 10.511393211464 0.6626576152136 11.002190972431 0.3534648975550 -147.0555950071
1.340000000000000 0.3272271357650 -178.3771250795 0.6742333379444 -5.042023102841 0.6624119464934 10.668598549397
                  0.6742333379444 -5.042023102841 0.3271024829222 -177.3767000371 0.6625202140291 11.166809990991
                  0.6624119464934 10.668598549397 0.6625202140291 11.166809990991 0.3540175685848 -146.5864940750
1.360000000000000 0.3270453784653 -178.3565106131 0.6744626487444 -5.113119602525 0.6622699976012 10.825725364099
                  0.6744626487444 -5.113119602525 0.3269163113391 -177.3410546751 0.6623807664292 11.331350058607
                  0.6622699976012 10.825725364099 0.6623807664292 11.331350058607 0.3545765471275 -146.1185491766
1.380000000000000 0.3268610758235 -178.3360549865 0.6746950311969 -5.184046214832 0.6621259817238 10.982772725031
                  0.6746950311969 -5.184046214832 0.3267275198201 -177.3055641991 0.6622392816432 11.495810244898
                  0.6621259817238 10.982772725030 0.6622392816432 11.495810244898 0.3551417703386 -145.6517681463
1.400000000000000 0.3266742343763 -178.3157606563 0.6749304680141 -5.254801015173 0.6619799081179 11.139739706391
                  0.6749304680141 -5.254801015173 0.3265361148730 -177.2702310441 0.6620957689603 11.660189624208
                  0.6619799081179 11.139739706391 0.6620957689603 11.660189624208 0.3557131751157 -145.1861585541
1.420000000000000 0.3264848607989 -178.2956300787 0.6751689417018 -5.325382101609 0.6618317861006 11.296625387141
                  0.6751689417018 -5.325382101609 0.3263421031472 -177.2350576447 0.6619502377284 11.824487275628
                  0.6618317861006 11.296625387141 0.6619502377284 11.824487275628 0.3562906981153 -144.7217277084
1.440000000000000 0.3262929619049 -178.2756657095 0.6754104345617 -5.395787595063 0.6616816250486 11.453428851031
                  0.6754104345617 -5.395787595063 0.3261454914338 -177.2000464342 0.6618026973534 11.988702283029
                  0.6616816250486 11.453428851031 0.6618026973534 11.988702283029 0.3568742757699 -144.2584826572
1.460000000000000 0.3260985446459 -178.2558700039 0.6756549286951 -5.466015639528 0.6615294343971 11.610149186626
                  0.6756549286951 -5.466015639528 0.3259462866641 -177.1651998450 0.6616531572982 12.152833735082
                  0.6615294343971 11.610149186626 0.6616531572982 12.152833735082 0.3574638443056 -143.7964301907
1.480000000000000 0.3259016161105 -178.2362454163 0.6759024060054 -5.536064402265 0.6613752236395 11.766785487333
                  0.6759024060054 -5.536064402265 0.3257444959099 -177.1305203084 0.6615016270820 12.316880725285
                  0.6613752236395 11.766785487333 0.6615016270820 12.316880725285 0.3580593397583 -143.3355768435
1.500000000000000 0.3257021835243 -178.2167944001 0.6761528482016 -5.605932073999 0.6612190023258 11.923336851428
                  0.6761528482016 -5.605932073999 0.3255401263823 -177.0960102544 0.6613481162792 12.480842351990
                  0.6612190023258 11.923336851428 0.6613481162792 12.480842351990 0.3586606979904 -142.8759288967
1.520000000000000 0.3255002542491 -178.1975194081 0.6764062368009 -5.675616869102 0.6610607800619 12.079802382073
                  0.6764062368009 -5.675616869102 0.3253331854312 -177.0616721116 0.6611926345186 12.644717718424
                  0.6610607800619 12.079802382073 0.6611926345186 12.644717718424 0.3592678547073 -142.4174923803
1.540000000000000 0.3252958357826 -178.1784228917 0.6766625531325 -5.745117025774 0.6609005665092 12.236181187348
                  0.6766625531325 -5.745117025774 0.3251236805446 -177.0275083071 0.6610351914826 12.808505932714
                  0.6609005665092 12.236181187348 0.6610351914826 12.808505932714 0.3598807454732 -141.9602730761
1.560000000000000 0.3250889357574 -178.1595073014 0.6769217783403 -5.814430806215 0.6607383713831 12.392472380269
                  0.6769217783403 -5.814430806215 0.3249116193479 -176.9935212664 0.6608757969061 12.972206107911
                  0.6607383713831 12.392472380269 0.6608757969061 12.972206107911 0.3604993057275 -141.5042765196
1.580000000000000 0.3248795619409 -178.1407750863 0.6771838933861 -5.883556496791 0.6605742044522 12.548675078816
                  0.6771838933861 -5.883556496791 0.3246970096034 -176.9597134132 0.6607144605759 13.135817362010
                  0.6605742044522 12.548675078816 0.6607144605759 13.135817362010 0.3611234708000 -141.0495080031
1.600000000000000 0.3246677222343 -178.1222286940 0.6774488790532 -5.952492408192 0.6604080755376 12.704788405948
                  0.6774488790532 -5.952492408192 0.3244798592092 -176.9260871694 0.6605511923295 13.299338817975
                  0.6604080755376 12.704788405948 0.6605511923295 13.299338817975 0.3617531759264 -140.5959725783
1.620000000000000 0.3244534246721 -178.1038705708 0.6777167159491 -6.021236875586 0.6602399945121 12.860811489633
                  0.6777167159491 -6.021236875586 0.3242601761987 -176.8926449550 0.6603860020543 13.462769603759
                  0.6602399945121 12.860811489633 0.6603860020543 13.462769603759 0.3623883562639 -140.1436750589
1.640000000000000 0.3242366774217 -178.0857031613 0.6779873845091 -6.089788258763 0.6600699712988 13.016743462862
                  0.6779873845091 -6.089788258763 0.3240379687399 -176.8593891879 0.6602188996869 13.626108852324
                  0.6600699712988 13.016743462862 0.6602188996869 13.626108852324 0.3630289469055 -139.6926200236
1.660000000000000 0.3240174887822 -178.0677289084 0.6782608649997 -6.158144942272 0.6598980158706 13.172583463675
                  0.6782608649997 -6.158144942272 0.3238132451344 -176.8263222837 0.6600498952118 13.789355701662
                  0.6598980158706 13.172583463675 0.6600498952118 13.789355701662 0.3636748828953 -139.2428118188
1.680000000000000 0.3237958671844 -178.0499502531 0.6785371375213 -6.226305335555 0.6597241382494 13.328330635176
                  0.6785371375213 -6.226305335555 0.3235860138165 -176.7934466559 0.6598789986609 13.952509294817
                  0.6597241382494 13.328330635176 0.6598789986609 13.952509294817 0.3643260992427 -138.7942545617
1.700000000000000 0.3235718211895 -178.0323696344 0.6788161820123 -6.294267873073 0.6595483485046 13.483984125560
                  0.6788161820123 -6.294267873073 0.3233562833528 -176.7607647154 0.6597062201125 14.115568779901
                  0.6595483485046 13.483984125560 0.6597062201125 14.115568779901 0.3649825309365 -138.3469521433
1.720000000000000 0.3233453594886 -178.0149894894 0.6790979782518 -6.362031014417 0.6593706567530 13.639543088122
                  0.6790979782518 -6.362031014417 0.3231240624410 -176.7282788706 0.6595315696902 14.278533310114
                  0.6593706567530 13.639543088122 0.6595315696902 14.278533310114 0.3656441129590 -137.9009082312
1.740000000000000 0.3231164909022 -177.9978122531 0.6793825058632 -6.429593244428 0.6591910731571 13.795006681286
                  0.6793825058632 -6.429593244428 0.3228893599092 -176.6959915275 0.6593550575621 14.441402043763
                  0.6591910731571 13.795006681286 0.6593550575621 14.441402043763 0.3663107802999 -137.4561262730
1.760000000000000 0.3228852243790 -177.9808403578 0.6796697443177 -6.496953073295 0.6590096079248 13.950374068614
                  0.6796697443177 -6.496953073295 0.3226521847150 -176.6639050889 0.6591766939402 14.604174144280
                  0.6590096079248 13.950374068614 0.6591766939402 14.604174144280 0.3669824679692 -137.0126094990
1.780000000000000 0.3226515689956 -177.9640762339 0.6799596729373 -6.564109036654 0.6588262713083 14.105644418829
                  0.6799596729373 -6.564109036654 0.3224125459445 -176.6320219551 0.6589964890790 14.766848780237
                  0.6588262713083 14.105644418829 0.6589964890790 14.766848780237 0.3676591110109 -136.5703609258
1.800000000000000 0.3224155339551 -177.9475223090 0.6802522708985 -6.631059695681 0.6586410736030 14.260816905830
                  0.6802522708985 -6.631059695681 0.3221704528116 -176.6003445234 0.6588144532750 14.929425125363
                  0.6586410736030 14.260816905830 0.6588144532750 14.929425125363 0.3683406445158 -136.1293833591
1.820000000000000 0.3221771285871 -177.9311810081 0.6805475172358 -6.697803637174 0.6584540251467 14.415890708707