! Sonnet Data File
! From: sonnet Version : 18.53-Lite
! From Emgraph Data: 
! Data File Written: 04/06/2024 10:38:45
!< HDATE 04/06/2024 10:38:13
!< MDATE 04/06/2024 10:38:13
# GHZ S MA R 50.00000
0.100000000000000 0.0179935101494 86.157257154099 0.9991279176832 -1.642300030893 0.9991279176831 -1.642300030898 0.0179935133488 86.151590558386
0.110000000000000 0.0197424161006 86.120516049348 0.9990686378009 -1.803751372264 0.9990686378009 -1.803751372264 0.0197423634356 86.113992941348
0.120000000000000 0.0214907904888 86.064051931091 0.9990065178495 -1.965173361408 0.9990065178495 -1.965173361408 0.0214906848528 86.056735652710
0.130000000000000 0.0232385956736 85.992328232402 0.9989415604439 -2.126565219059 0.9989415604439 -2.126565219059 0.0232384399855 85.984267279073
0.140000000000000 0.0249857987254 85.908557794737 0.9988737683059 -2.287926166655 0.9988737683059 -2.287926166655 0.0249855959016 85.899790018320
0.150000000000000 0.0267323698929 85.815112221458 0.9988031442643 -2.449255426294 0.9988031442643 -2.449255426294 0.0267321228270 85.805667645506
0.160000000000000 0.0284782816354 85.713780330346 0.9987296912547 -2.610552220773 0.9987296912547 -2.610552220773 0.0284779931846 85.703683093617
0.170000000000000 0.0302235079916 85.605936843133 0.9986534123195 -2.771815773622 0.9986534123195 -2.771815773622 0.0302231809676 85.595206576272
0.180000000000000 0.0319680241564 85.492655691281 0.9985743106070 -2.933045309142 0.9985743106070 -2.933045309142 0.0319676613181 85.481308514102
0.190000000000000 0.0337118061894 85.374788050338 0.9984923893720 -3.094240052434 0.9984923893720 -3.094240052434 0.0337114102384 85.362837308564
0.200000000000000 0.0354548308097 85.253017280242 0.9984076519751 -3.255399229441 0.9984076519751 -3.255399229441 0.0354544043869 85.240474099334
0.210000000000000 0.0371970752498 85.127898370108 0.9983201018823 -3.416522066982 0.9983201018823 -3.416522066982 0.0371966209328 85.114772078064
0.220000000000000 0.0389385171482 84.999886757232 0.9982297426654 -3.577607792785 0.9982297426654 -3.577607792785 0.0389380374496 84.986185211880
0.230000000000000 0.0406791344704 84.869359716099 0.9981365780010 -3.738655635521 0.9981365780010 -3.738655635521 0.0406786318368 84.855089561647
0.240000000000000 0.0424189054499 84.736632460182 0.9980406116707 -3.899664824845 0.9980406116707 -3.899664824845 0.0424183822606 84.721799330593
0.250000000000000 0.0441578085428 84.601970420850 0.9979418475608 -4.060634591425 0.9979418475608 -4.060634591425 0.0441572671097 84.586579102755
0.260000000000000 0.0458958223937 84.465598722002 0.9978402896615 -4.221564166981 0.9978402896615 -4.221564166981 0.0458952649607 84.449653286423
0.270000000000000 0.0476329258086 84.327709570165 0.9977359420675 -4.382452784315 0.9977359420675 -4.382452784315 0.0476323545519 84.311213479961
0.280000000000000 0.0493690977348 84.188468076206 0.9976288089769 -4.543299677352 0.9976288089769 -4.543299677352 0.0493685147624 84.171424274398
0.290000000000000 0.0511043172439 84.048016883671 0.9975188946912 -4.704104081169 0.9975188946912 -4.704104081169 0.0511037245962 84.030427866609
0.300000000000000 0.0528385635191 83.906479879763 0.9974062036150 -4.864865232033 0.9974062036150 -4.864865232033 0.0528379631691 83.888347758126
0.310000000000000 0.0545718158455 83.763965194244 0.9972907402558 -5.025582367434 0.9972907402558 -5.025582367434 0.0545712096987 83.745291744251
0.320000000000000 0.0563040536011 83.620567640782 0.9971725092231 -5.186254726120 0.9971725092231 -5.186254726120 0.0563034434964 83.601354347402
0.330000000000000 0.0580352562508 83.476370717987 0.9970515152290 -5.346881548129 0.9970515152290 -5.346881548129 0.0580346439608 83.456618811636
0.340000000000000 0.0597654033414 83.331448260133 0.9969277630867 -5.507462074827 0.9969277630867 -5.507462074827 0.0597647905726 83.311158747974
0.350000000000000 0.0614944744970 83.185865807026 0.9968012577113 -5.667995548939 0.9968012577113 -5.667995548939 0.0614938628908 83.165039499814
0.360000000000000 0.0632224494158 83.039681747290 0.9966720041184 -5.828481214584 0.9966720041184 -5.828481214584 0.0632218405487 83.018319282485
0.370000000000000 0.0649493078680 82.892948277564 0.9965400074246 -5.988918317309 0.9965400074246 -5.988918317309 0.0649487032522 82.871050139331
0.380000000000000 0.0666750296929 82.745712211327 0.9964052728464 -6.149306104121 0.9964052728464 -6.149306104121 0.0666744307772 82.723278747899
0.390000000000000 0.0683995947980 82.598015664127 0.9962678057002 -6.309643823522 0.9962678057002 -6.309643823522 0.0683990029679 82.575047102948
0.400000000000000 0.0701229831574 82.449896636720 0.9961276114020 -6.469930725545 0.9961276114020 -6.469930725545 0.0701223997364 82.426393097685
0.410000000000000 0.0718451748113 82.301389513410 0.9959846954665 -6.630166061782 0.9959846954665 -6.630166061782 0.0718446010608 82.277351020502
0.420000000000000 0.0735661498648 82.152525489668 0.9958390635072 -6.790349085419 0.9958390635072 -6.790349085419 0.0735655869854 82.127951981189
0.430000000000000 0.0752858884878 82.003332940424 0.9956907212358 -6.950479051272 0.9956907212358 -6.950479051272 0.0752853376196 81.978224278051
0.440000000000000 0.0770043709147 81.853837738461 0.9955396744614 -7.110555215817 0.9955396744614 -7.110555215817 0.0770038331383 81.828193715260
0.450000000000000 0.0787215774444 81.704063530594 0.9953859290908 -7.270576837224 0.9953859290908 -7.270576837224 0.0787210537812 81.677883878141
0.460000000000000 0.0804374884403 81.554031978037 0.9952294911275 -7.430543175388 0.9952294911275 -7.430543175388 0.0804369798534 81.527316372760
0.470000000000000 0.0821520843301 81.403762966249 0.9950703666712 -7.590453491964 0.9950703666712 -7.590453491964 0.0821515917252 81.376511035097
0.480000000000000 0.0838653456065 81.253274788695 0.9949085619179 -7.750307050397 0.9949085619179 -7.750307050397 0.0838648698324 81.225486114209
0.490000000000000 0.0855772528274 81.102584308231 0.9947440831587 -7.910103115959 0.9947440831587 -7.910103115959 0.0855767946765 81.074258433091
0.500000000000000 0.0872877866159 80.951707099215 0.9945769367800 -8.069840955772 0.9945769367800 -8.069840955772 0.0872873468256 80.922843530331
0.510000000000000 0.0889969276614 80.800657572986 0.9944071292625 -8.229519838851 0.9944071292625 -8.229519838851 0.0889965069141 80.771255785186
0.520000000000000 0.0907046567194 80.649449088935 0.9942346671809 -8.389139036127 0.9942346671809 -8.389139036127 0.0907042556437 80.619508528291
0.530000000000000 0.0924109546125 80.498094053066 0.9940595572036 -8.548697820484 0.9940595572036 -8.548697820484 0.0924105737837 80.467614139904
0.540000000000000 0.0941158022306 80.346604005655 0.9938818060918 -8.708195466787 0.9938818060918 -8.708195466787 0.0941154421717 80.315584137279
0.550000000000000 0.0958191805319 80.194989699387 0.9937014206994 -8.867631251918 0.9937014206994 -8.867631251918 0.0958188417141 80.163429252556
0.560000000000000 0.0975210705431 80.043261169160 0.9935184079722 -9.027004454801 0.9935184079722 -9.027004454801 0.0975207533866 80.011159502341
0.570000000000000 0.0992214533602 79.891427794580 0.9933327749473 -9.186314356439 0.9933327749473 -9.186314356439 0.0992211582350 79.858784249989
0.580000000000000 0.1009203101491 79.739498356000 0.9931445287530 -9.345560239941 0.9931445287530 -9.345560239941 0.1009200373760 79.706312261482
0.590000000000000 0.1026176221465 79.587481084908 0.9929536766078 -9.504741390555 0.9929536766078 -9.504741390555 0.1026173719973 79.553751755631
0.600000000000000 0.1043133706601 79.435383709271 0.9927602258203 -9.663857095698 0.9927602258203 -9.663857095698 0.1043131433589 79.401110449298
0.610000000000000 0.1060075370698 79.283213494457 0.9925641837880 -9.822906644985 0.9925641837880 -9.822906644985 0.1060073327934 79.248395598169
0.620000000000000 0.1077001028278 79.130977280196 0.9923655579974 -9.981889330261 0.9923655579974 -9.981889330261 0.1076999217069 79.095614033606
0.630000000000000 0.1093910494601 78.978681514045 0.9921643560232 -10.14080444563 0.9921643560232 -10.14080444563 0.1093908915794 78.942772195998
0.640000000000000 0.1110803585662 78.826332281717 0.9919605855276 -10.29965128749 0.9919605855276 -10.29965128749 0.1110802239658 78.789876164998
0.650000000000000 0.1127680118207 78.673935334624 0.9917542542598 -10.45842915456 0.9917542542598 -10.45842915456 0.1127679004967 78.636931686978
0.660000000000000 0.1144539909736 78.521496114927 0.9915453700557 -10.61713734789 0.9915453700557 -10.61713734789 0.1144539028785 78.483944199994
0.670000000000000 0.1161382778508 78.369019778273 0.9913339408367 -10.77577517093 0.9913339408367 -10.77577517093 0.1161382128949 78.330918856506
0.680000000000000 0.1178208666007 78.216509087878 0.9911199700897 -10.93434263511 0.9911199700897 -10.93434263511 0.1178208247104 78.177858455192
0.690000000000000 0.1195017506742 78.063966718589 0.9909034614842 -11.09283971026 0.9909034614842 -11.09283971026 0.1195017317931 78.024765705258
0.700000000000000 0.1211809109716 77.911397318070 0.9906844233535 -11.25126564132 0.9906844233535 -11.25126564132 0.1211809150034 77.871645250023
0.710000000000000 0.1228583284784 77.758805314689 0.9904628641290 -11.40961967607 0.9904628641290 -11.40961967607 0.1228583552878 77.718501514214
0.720000000000000 0.1245339842667 77.606194932524 0.9902387923393 -11.56790106515 0.9902387923393 -11.56790106515 0.1245340336792 77.565338718857
0.730000000000000 0.1262078594956 77.453570205073 0.9900122166097 -11.72610906208 0.9900122166097 -11.72610906208 0.1262079312986 77.412160894949
0.740000000000000 0.1278799354122 77.300934987853 0.9897831456608 -11.88424292336 0.9897831456608 -11.88424292336 0.1278800293553 77.258971896018
0.750000000000000 0.1295501933527 77.148292969993 0.9895515883086 -12.04230190845 0.9895515883086 -12.04230190845 0.1295503091482 77.105775409677
0.760000000000000 0.1312186147430 76.995647684917 0.9893175534631 -12.20028527983 0.9893175534631 -12.20028527983 0.1312187520662 76.952574968275
0.770000000000000 0.1328851810997 76.843002520187 0.9890810501276 -12.35819230303 0.9890810501276 -12.35819230303 0.1328853395897 76.799373958714
0.780000000000000 0.1345498740309 76.690360726600 0.9888420873981 -12.51602224667 0.9888420873981 -12.51602224667 0.1345500532909 76.646175631508
0.790000000000000 0.1362126752369 76.537725426589 0.9886006744624 -12.67377438252 0.9886006744624 -12.67377438252 0.1362128748348 76.492983109166
0.800000000000000 0.1378735665115 76.385099621993 0.9883568205992 -12.83144798548 0.9883568205992 -12.83144798548 0.1378737859804 76.339799393936
0.810000000000000 0.1395325297422 76.232486201254 0.9881105351775 -12.98904233366 0.9881105351775 -12.98904233366 0.1395327685808 76.186627374975
0.820000000000000 0.1411895469116 76.079887946090 0.9878618276556 -13.14655670842 0.9878618276556 -13.14655670842 0.1411898045846 76.033469835009
0.830000000000000 0.1428446000976 75.927307537676 0.9876107075803 -13.30399039438 0.9876107075803 -13.30399039438 0.1428448760367 75.880329456489
0.840000000000000 0.1444976714750 75.774747562397 0.9873571845861 -13.46134267945 0.9873571845861 -13.46134267945 0.1444979650785 75.727208827328
0.850000000000000 0.1461487433152 75.622210517179 0.9871012683943 -13.61861285490 0.9871012683943 -13.61861285490 0.1461490539496 75.574110446216
0.860000000000000 0.1477977979882 75.469698814460 0.9868429688122 -13.77580021537 0.9868429688122 -13.77580021537 0.1477981249877 75.421036727577
0.870000000000000 0.1494448179624 75.317214786812 0.9865822957323 -13.93290405889 0.9865822957323 -13.93290405889 0.1494451606300 75.267990006172
0.880000000000000 0.1510897858058 75.164760691248 0.9863192591314 -14.08992368694 0.9863192591314 -14.08992368694 0.1510901434134 75.114972541395
0.890000000000000 0.1527326841867 75.012338713237 0.9860538690696 -14.24685840449 0.9860538690696 -14.24685840449 0.1527330559759 74.961986521280
0.900000000000000 0.1543734958743 74.859950970449 0.9857861356896 -14.40370751999 0.9857861356896 -14.40370751999 0.1543738810568 74.809034066230
0.910000000000000 0.1560122037395 74.707599516258 0.9855160692159 -14.56047034545 0.9855160692159 -14.56047034545 0.1560126014976 74.656117232507
0.920000000000000 0.1576487907559 74.555286343011 0.9852436799534 -14.71714619643 0.9852436799534 -14.71714619643 0.1576492002428 74.503238015499
0.930000000000000 0.1592832399998 74.403013385086 0.9849689782874 -14.87373439210 0.9849689782874 -14.87373439210 0.1592836603403 74.350398352757
0.940000000000000 0.1609155346518 74.250782521752 0.9846919746817 -15.03023425529 0.9846919746817 -15.03023425529 0.1609159649426 74.197600126861
0.950000000000000 0.1625456579965 74.098595579854 0.9844126796786 -15.18664511245 0.9844126796786 -15.18664511245 0.1625460973069 74.044845168082
0.960000000000000 0.1641735934240 73.946454336317 0.9841311038974 -15.34296629376 0.9841311038974 -15.34296629376 0.1641740407963 73.892135256889
0.970000000000000 0.1657993244301 73.794360520510 0.9838472580337 -15.49919713311 0.9838472580337 -15.49919713311 0.1657997788800 73.739472126302
0.980000000000000 0.1674228346172 73.642315816452 0.9835611528585 -15.65533696815 0.9835611528585 -15.65533696815 0.1674232951342 73.586857464090
0.990000000000000 0.1690441076946 73.490321864885 0.9832727992173 -15.81138514032 0.9832727992173 -15.81138514032 0.1690445732427 73.434292914838
1.000000000000000 0.1706631274793 73.338380265229 0.9829822080290 -15.96734099487 0.9829822080290 -15.96734099487 0.1706635969976 73.281780081900
1.010000000000000 0.1722798778968 73.186492577411 0.9826893902853 -16.12320388089 0.9826893902853 -16.12320388089 0.1722803502995 73.129320529216
1.020000000000000 0.1738943429815 73.034660323588 0.9823943570495 -16.27897315135 0.9823943570495 -16.27897315135 0.1738948171587 72.976915783040
1.030000000000000 0.1755065068772 72.882884989775 0.9820971194555 -16.43464816311 0.9820971194555 -16.43464816311 0.1755069816953 72.824567333549
1.040000000000000 0.1771163538377 72.731168027368 0.9817976887072 -16.59022827699 0.9817976887072 -16.59022827699 0.1771168281400 72.672276636373
1.050000000000000 0.1787238682276 72.579510854585 0.9814960760774 -16.74571285771 0.9814960760774 -16.74571285771 0.1787243408345 72.520045114029
1.060000000000000 0.1803290345227 72.427914857826 0.9811922929066 -16.90110127403 0.9811922929066 -16.90110127403 0.1803295042324 72.367874157272
1.070000000000000 0.1819318373104 72.276381392948 0.9808863506024 -17.05639289868 0.9808863506024 -17.05639289868 0.1819323028993 72.215765126374
1.080000000000000 0.1835322612904 72.124911786481 0.9805782606384 -17.21158710845 0.9805782606384 -17.21158710845 0.1835327215136 72.063719352328
1.090000000000000 0.1851302912752 71.973507336758 0.9802680345534 -17.36668328417 0.9802680345534 -17.36668328417 0.1851307448667 71.911738137984
1.100000000000000 0.1867259121903 71.822169315005 0.9799556839502 -17.52168081077 0.9799556839502 -17.52168081077 0.1867263578640 71.759822759127
1.110000000000000 0.1883191090754 71.670898966350 0.9796412204945 -17.67657907730 0.9796412204945 -17.67657907730 0.1883195455250 71.607974465488
1.120000000000000 0.1899098670839 71.519697510790 0.9793246559147 -17.83137747693 0.9793246559147 -17.83137747693 0.1899102929839 71.456194481709
1.130000000000000 0.1914981714843 71.368566144104 0.9790060020000 -17.98607540701 0.9790060020000 -17.98607540701 0.1914985854899 71.304484008248
1.140000000000000 0.1930840076601 71.217506038711 0.9786852706001 -18.14067226906 0.9786852706001 -18.14067226906 0.1930844084079 71.152844222241
1.150000000000000 0.1946673611101 71.066518344491 0.9783624736237 -18.29516746881 0.9783624736237 -18.29516746881 0.1946677472189 71.001276278316
1.160000000000000 0.1962482174494 70.915604189554 0.9780376230381 -18.44956041623 0.9780376230381 -18.44956041623 0.1962485875201 70.849781309363
1.170000000000000 0.1978265624095 70.764764680978 0.9777107308678 -18.60385052555 0.9777107308678 -18.60385052555 0.1978269150259 70.698360427267
1.180000000000000 0.1994023818386 70.614000905502 0.9773818091937 -18.75803721527 0.9773818091937 -18.75803721527 0.1994027155676 70.547014723601
1.190000000000000 0.2009756617020 70.463313930185 0.9770508701519 -18.91211990819 0.9770508701519 -18.91211990819 0.2009759750944 70.395745270282
1.200000000000000 0.2025463880827 70.312704803031 0.9767179259332 -19.06609803143 0.9767179259332 -19.06609803143 0.2025466796734 70.244553120195
1.210000000000000 0.2041145471816 70.162174553587 0.9763829887816 -19.21997101645 0.9763829887816 -19.21997101645 0.2041148154901 70.093439307790
1.220000000000000 0.2056801253180 70.011724193503 0.9760460709936 -19.37373829910 0.9760460709936 -19.37373829910 0.2056803688487 69.942404849639
1.230000000000000 0.2072431089295 69.861354717069 0.9757071849171 -19.52739931958 0.9757071849171 -19.52739931958 0.2072433261725 69.791450744971
1.240000000000000 0.2088034845729 69.711067101725 0.9753663429505 -19.68095352252 0.9753663429505 -19.68095352252 0.2088036740042 69.640577976185
1.250000000000000 0.2103612389243 69.560862308548 0.9750235575417 -19.83440035695 0.9750235575417 -19.83440035695 0.2103613990061 69.489787509328
1.260000000000000 0.2119163587792 69.410741282707 0.9746788411871 -19.98773927638 0.9746788411871 -19.98773927638 0.2119164879607 69.339080294558
1.270000000000000 0.2134688310529 69.260704953908 0.9743322064305 -20.14096973874 0.9743322064305 -20.14096973874 0.2134689277705 69.188457266577
1.280000000000000 0.2150186427811 69.110754236805 0.9739836658623 -20.29409120647 0.9739836658623 -20.29409120647 0.2150187054589 69.037919345054
1.290000000000000 0.2165657811196 68.960890031403 0.9736332321184 -20.44710314651 0.9736332321184 -20.44710314651 0.2165658081698 68.887467435014
1.300000000000000 0.2181102333451 68.811113223434 0.9732809178792 -20.60000503031 0.9732809178792 -20.60000503031 0.2181102231684 68.737102427222
1.310000000000000 0.2196519868549 68.661424684716 0.9729267358688 -20.75279633385 0.9729267358688 -20.75279633385 0.2196519378411 68.586825198539
1.320000000000000 0.2211910291676 68.511825273503 0.9725706988536 -20.90547653767 0.9725706988536 -20.90547653767 0.2211909396959 68.436636612267
1.330000000000000 0.2227273479231 68.362315834805 0.9722128196418 -21.05804512687 0.9722128196418 -21.05804512687 0.2227272163625 68.286537518472
1.340000000000000 0.2242609308828 68.212897200708 0.9718531110821 -21.21050159115 0.9718531110821 -21.21050159115 0.2242607555927 68.136528754306
1.350000000000000 0.2257917659299 68.063570190669 0.9714915860627 -21.36284542480 0.9714915860627 -21.36284542480 0.2257915452601 67.986611144292
1.360000000000000 0.2273198410693 67.914335611800 0.9711282575106 -21.51507612673 0.9711282575106 -21.51507612673 0.2273195733611 67.836785500619
1.370000000000000 0.2288451444282 67.765194259144 0.9707631383902 -21.66719320047 0.9707631383902 -21.66719320047 0.2288448280142 67.687052623407
1.380000000000000 0.2303676642559 67.616146915933 0.9703962417027 -21.81919615422 0.9703962417027 -21.81919615422 0.2303672974607 67.537413300971
1.390000000000000 0.2318873889241 67.467194353834 0.9700275804848 -21.97108450081 0.9700275804848 -21.97108450081 0.2318869700647 67.387868310065
1.400000000000000 0.2334043069270 67.318337333190 0.9696571678079 -22.12285775777 0.9696571678079 -22.12285775777 0.2334038343132 67.238418416120
1.410000000000000 0.2349184068815 67.169576603242 0.9692850167771 -22.27451544731 0.9692850167770 -22.27451544730 0.2349178788161 67.089064373419
1.420000000000000 0.2364296876447 67.020911223103 0.9689111335753 -22.42605769369 0.9689111335753 -22.42605769369 0.2364291025549 66.939805283849
1.430000000000000 0.2379381485840 66.872340171323 0.9685355239537 -22.57748464977 0.9685355239537 -22.57748464977 0.2379375050317 66.790640170363
1.440000000000000 0.2394437792545 66.723864061296 0.9681582004150 -22.72879588715 0.9681582004150 -22.72879588715 0.2394430758128 66.641569654379
1.450000000000000 0.2409465693215 66.575483497389 0.9677791754872 -22.87999098145 0.9677791754872 -22.87999098145 0.2409458045754 66.492594348231
1.460000000000000 0.2424465085604 66.427199075121 0.9673984617231 -23.03106951238 0.9673984617231 -23.03106951238 0.2424456811072 66.343714855402
1.470000000000000 0.2439435868566 66.279011381334 0.9670160716992 -23.18203106370 0.9670160716992 -23.18203106370 0.2439426953070 66.194931770688
1.480000000000000 0.2454377942057 66.130920994345 0.9666320180156 -23.33287522324 0.9666320180156 -23.33287522324 0.2454368371841 66.046245680358
1.490000000000000 0.2469291207133 65.982928484108 0.9662463132943 -23.48360158293 0.9662463132943 -23.48360158293 0.2469280968589 65.897657162309
1.500000000000000 0.2484175565953 65.835034412360 0.9658589701791 -23.63420973878 0.9658589701791 -23.63420973878 0.2484164645627 65.749166786211
1.510000000000000 0.2499030921775 65.687239332755 0.9654700013345 -23.78469929089 0.9654700013345 -23.78469929089 0.2499019306374 65.600775113651
1.520000000000000 0.2513857178963 65.539543791009 0.9650794194451 -23.93506984350 0.9650794194451 -23.93506984350 0.2513844855359 65.452482698265
1.530000000000000 0.2528654242976 65.391948325025 0.9646872372145 -24.08532100494 0.9646872372145 -24.08532100494 0.2528641198219 65.304290085868
1.540000000000000 0.2543422020380 65.244453465015 0.9642934673650 -24.23545238768 0.9642934673650 -24.23545238768 0.2543408241701 65.156197814581
1.550000000000000 0.2558160418837 65.097059733626 0.9638981226363 -24.38546360830 0.9638981226363 -24.38546360830 0.2558145893656 65.008206414948
1.560000000000000 0.2572869347112 64.949767646053 0.9635012157851 -24.53535428755 0.9635012157851 -24.53535428755 0.2572854063044 64.860316410051
1.570000000000000 0.2587548715069 64.802577710145 0.9631027595843 -24.68512405030 0.9631027595843 -24.68512405030 0.2587532659934 64.712528315625
1.580000000000000 0.2602198433671 64.655490426518 0.9627027668218 -24.83477252559 0.9627027668218 -24.83477252559 0.2602181595498 64.564842640155
1.590000000000000 0.2616818414979 64.508506288651 0.9623012503004 -24.98429934660 0.9623012503004 -24.98429934660 0.2616800782015 64.417259884987
1.600000000000000 0.2631408572153 64.361625782989 0.9618982228365 -25.13370415070 0.9618982228365 -25.13370415070 0.2631390132868 64.269780544420
1.610000000000000 0.2645968819450 64.214849389033 0.9614936972594 -25.28298657941 0.9614936972594 -25.28298657941 0.2645949562545 64.122405105803
1.620000000000000 0.2660499072222 64.068177579434 0.9610876864110 -25.43214627843 0.9610876864110 -25.43214627843 0.2660478986636 63.975134049625
1.630000000000000 0.2674999246917 63.921610820079 0.9606802031443 -25.58118289764 0.9606802031443 -25.58118289764 0.2674978321834 63.827967849601
1.640000000000000 0.2689469261077 63.775149570175 0.9602712603232 -25.73009609112 0.9602712603232 -25.73009609112 0.2689447485931 63.680906972759
1.650000000000000 0.2703909033335 63.628794282328 0.9598608708215 -25.87888551712 0.9598608708215 -25.87888551712 0.2703886397821 63.533951879517
1.660000000000000 0.2718318483419 63.482545402628 0.9594490475223 -26.02755083811 0.9594490475223 -26.02755083811 0.2718294977495 63.387103023766
1.670000000000000 0.2732697532144 63.336403370714 0.9590358033171 -26.17609172073 0.9590358033171 -26.17609172073 0.2732673146042 63.240360852938
1.680000000000000 0.2747046101417 63.190368619854 0.9586211511050 -26.32450783586 0.9586211511050 -26.32450783586 0.2747020825646 63.093725808086
1.690000000000000 0.2761364114230 63.044441577012 0.9582051037922 -26.47279885856 0.9582051037922 -26.47279885856 0.2761337939586 62.947198323948
1.700000000000000 0.2775651494662 62.898622662914 0.9577876742908 -26.62096446810 0.9577876742908 -26.62096446810 0.2775624412233 62.800778829016
1.710000000000000 0.2789908167878 62.752912292116 0.9573688755188 -26.76900434799 0.9573688755188 -26.76900434799 0.2789880169049 62.654467745603
1.720000000000000 0.2804134060122 62.607310873065 0.9569487203986 -26.91691818592 0.9569487203986 -26.91691818592 0.2804105136586 62.508265489902
1.730000000000000 0.2818329098722 62.461818808158 0.9565272218566 -27.06470567384 0.9565272218566 -27.06470567384 0.2818299242484 62.362172472051
1.740000000000000 0.2832493212083 62.316436493801 0.9561043928226 -27.21236650790 0.9561043928226 -27.21236650790 0.2832462415468 62.216189096184
1.750000000000000 0.2846626329689 62.171164320469 0.9556802462286 -27.35990038847 0.9556802462286 -27.35990038847 0.2846594585346 62.070315760497
1.760000000000000 0.2860728382098 62.026002672756 0.9552547950087 -27.50730702015 0.9552547950087 -27.50730702015 0.2860695683008 61.924552857296
1.770000000000000 0.2874799300941 61.880951929427 0.9548280520978 -27.65458611178 0.9548280520978 -27.65458611178 0.2874765640425 61.778900773049
1.780000000000000 0.2888839018921 61.736012463475 0.9544000304314 -27.80173737642 0.9544000304314 -27.80173737642 0.2888804390643 61.633359888442
1.790000000000000 0.2902847469807 61.591184642163 0.9539707429443 -27.94876053136 0.9539707429443 -27.94876053136 0.2902811867787 61.487930578423
1.800000000000000 0.2916824588436 61.446468827076 0.9535402025703 -28.09565529812 0.9535402025703 -28.09565529812 0.2916788007051 61.342613212255
1.810000000000000 0.2930770310712 61.301865374166 0.9531084222415 -28.24242140245 0.9531084222415 -28.24242140245 0.2930732744702 61.197408153557
1.820000000000000 0.2944684573594 61.157374633795 0.9526754148873 -28.38905857435 0.9526754148873 -28.38905857435 0.2944646018074 61.052315760352
1.830000000000000 0.2958567315107 61.012996950782 0.9522411934339 -28.53556654803 0.9522411934339 -28.53556654803 0.2958527765565 60.907336385107
1.840000000000000 0.2972418474327 60.868732664441 0.9518057708035 -28.68194506194 0.9518057708035 -28.68194506194 0.2972377926640 60.762470374782
1.850000000000000 0.2986237991387 60.724582108622 0.9513691599137 -28.82819385876 0.9513691599137 -28.82819385876 0.2986196441821 60.617718070860
1.860000000000000 0.3000025807471 60.580545611755 0.9509313736769 -28.97431268541 0.9509313736769 -28.97431268541 0.2999983252688 60.473079809398
1.870000000000000 0.3013781864809 60.436623496882 0.9504924249991 -29.12030129303 0.9504924249991 -29.12030129303 0.3013738301876 60.328555921055
1.880000000000000 0.3027506106679 60.292816081695 0.9500523267800 -29.26615943700 0.9500523267800 -29.26615943700 0.3027461533072 60.184146731136
1.890000000000000 0.3041198477401 60.149123678579 0.9496110919115 -29.41188687691 0.9496110919115 -29.41188687691 0.3041152891012 60.039852559626
1.900000000000000 0.3054858922333 60.005546594636 0.9491687332776 -29.55748337659 0.9491687332776 -29.55748337659 0.3054812321478 59.895673721224
1.910000000000000 0.3068487387872 59.862085131728 0.9487252637534 -29.70294870408 0.9487252637534 -29.70294870408 0.3068439771294 59.751610525379
1.920000000000000 0.3082083821446 59.718739586506 0.9482806962048 -29.84828263167 0.9482806962048 -29.84828263167 0.3082035188325 59.607663276322
1.930000000000000 0.3095648171515 59.575510250441 0.9478350434873 -29.99348493584 0.9478350434873 -29.99348493584 0.3095598521470 59.463832273098
1.940000000000000 0.3109180387566 59.432397409859 0.9473883184457 -30.13855539730 0.9473883184457 -30.13855539730 0.3109129720663 59.320117809597
1.950000000000000 0.3122680420108 59.289401345969 0.9469405339134 -30.28349380096 0.9469405339134 -30.28349380096 0.3122628736869 59.176520174587
1.960000000000000 0.3136148220671 59.146522334890 0.9464917027117 -30.42829993596 0.9464917027117 -30.42829993596 0.3136095522077 59.033039651742
1.970000000000000 0.3149583741803 59.003760647687 0.9460418376489 -30.57297359564 0.9460418376489 -30.57297359564 0.3149530029301 58.889676519669
1.980000000000000 0.3162986937064 58.861116550393 0.9455909515202 -30.71751457753 0.9455909515202 -30.71751457753 0.3162932212572 58.746431051940
1.990000000000000 0.3176357761024 58.718590304037 0.9451390571066 -30.86192268337 0.9451390571066 -30.86192268337 0.3176302026939 58.603303517118
2.000000000000000 0.3189696169259 58.576182164674 0.9446861671743 -31.00619771911 0.9446861671743 -31.00619771911 0.3189639428463 58.460294178783
2.010000000000000 0.3203002118349 58.433892383408 0.9442322944743 -31.15033949485 0.9442322944743 -31.15033949485 0.3202944374213 58.317403295560
2.020000000000000 0.3216275565872 58.291721206420 0.9437774517416 -31.29434782492 0.9437774517416 -31.29434782492 0.3216216822263 58.174631121144
2.030000000000000 0.3229516470398 58.149668874991 0.9433216516944 -31.43822252780 0.9433216516944 -31.43822252780 0.3229456731688 58.031977904324
2.040000000000000 0.3242724791493 58.007735625526 0.9428649070339 -31.58196342617 0.9428649070339 -31.58196342617 0.3242664062559 57.889443889009
2.050000000000000 0.3255900489706 57.865921689580 0.9424072304434 -31.72557034685 0.9424072304434 -31.72557034685 0.3255838775943 57.747029314252
2.060000000000000 0.3269043526573 57.724227293881 0.9419486345876 -31.86904312085 0.9419486345876 -31.86904312085 0.3268980833892 57.604734414271
2.070000000000000 0.3282153864605 57.582652660351 0.9414891321123 -32.01238158332 0.9414891321123 -32.01238158332 0.3282090199448 57.462559418477
2.080000000000000 0.3295231467291 57.441198006129 0.9410287356433 -32.15558557359 0.9410287356433 -32.15558557359 0.3295166836629 57.320504551493
2.090000000000000 0.3308276299089 57.299863543595 0.9405674577866 -32.29865493511 0.9405674577866 -32.29865493511 0.3308210710433 57.178570033174
2.100000000000000 0.3321288325427 57.158649480389 0.9401053111268 -32.44158951547 0.9401053111268 -32.44158951547 0.3321221786830 57.036756078636
2.110000000000000 0.3334267512692 57.017556019433 0.9396423082272 -32.58438916641 0.9396423082272 -32.58438916641 0.3334200032757 56.895062898269