! Sonnet Data File
! From: sonnet Version : 18.53-Lite
! From Emgraph Data: 
! Data File Written: 04/06/2024 10:45:29
!< HDATE 04/06/2024 10:45:02
!< MDATE 04/06/2024 10:45:02
# GHZ S MA R 50.00000
0.100000000000000 0.0263741879256 85.412425848870 0.9986159065490 -2.393400032381 0.9986159065490 -2.393400032379 0.0263741929717 85.413299412529
0.110000000000000 0.0289396664401 85.295439633866 0.9985038349046 -2.628808498228 0.9985038349046 -2.628808498228 0.0289397492986 85.296540634711
0.120000000000000 0.0315036051511 85.159989757215 0.9983856876753 -2.864139168179 0.9983856876753 -2.864139168179 0.0315037602478 85.161283679646
0.130000000000000 0.0340659214503 85.010269671987 0.9982614744855 -3.099389846413 0.9982614744855 -3.099389846413 0.0340661433448 85.011730433706
0.140000000000000 0.0366265388447 84.849296496530 0.9981312054478 -3.334558337043 0.9981312054478 -3.334558337043 0.0366268222497 84.850904032437
0.150000000000000 0.0391853849791 84.679296623531 0.9979948911585 -3.569642444201 0.9979948911585 -3.569642444201 0.0391857247722 84.681035272772
0.160000000000000 0.0417423903921 84.501948984155 0.9978525426942 -3.804639972146 0.9978525426942 -3.804639972146 0.0417427816228 84.503806380271
0.170000000000000 0.0442974877062 84.318543714475 0.9977041716085 -4.039548725407 0.9977041716085 -4.039548725407 0.0442979255991 84.320510001523
0.180000000000000 0.0468506110859 84.130088665264 0.9975497899290 -4.274366508933 0.9975497899290 -4.274366508933 0.0468510910424 84.132155931479
0.190000000000000 0.0494016958671 83.937382717729 0.9973894101541 -4.509091128252 0.9973894101541 -4.509091128252 0.0494022134658 83.939544578154
0.200000000000000 0.0519506782980 83.741067378011 0.9972230452508 -4.743720389658 0.9972230452508 -4.743720389658 0.0519512292934 83.743318661483
0.210000000000000 0.0544974953545 83.541663804818 0.9970507086519 -4.978252100388 0.9970507086519 -4.978252100388 0.0544980756760 83.544000315530
0.220000000000000 0.0570420846080 83.339599852616 0.9968724142535 -5.212684068825 0.9968724142535 -5.212684068825 0.0570426903576 83.342018185954
0.230000000000000 0.0595843841282 83.135230136212 0.9966881764130 -5.447014104697 0.9966881764130 -5.447014104697 0.0595850115785 83.137727534715
0.240000000000000 0.0621243324121 82.928851131045 0.9964980099467 -5.681240019293 0.9964980099467 -5.681240019293 0.0621249780034 82.931425370466
0.250000000000000 0.0646618683313 82.720712685372 0.9963019301277 -5.915359625670 0.9963019301277 -5.915359625670 0.0646625286689 82.723361983634
0.260000000000000 0.0671969310925 82.511026901148 0.9960999526838 -6.149370738884 0.9960999526838 -6.149370738884 0.0671976029442 82.513749844895
0.270000000000000 0.0697294602091 82.299975059476 0.9958920937953 -6.383271176208 0.9958920937953 -6.383271176208 0.0697301405017 82.302770544338
0.280000000000000 0.0722593954791 82.087713075192 0.9956783700936 -6.617058757364 0.9956783700936 -6.617058757364 0.0722600812956 82.090580256797
0.290000000000000 0.0747866769699 81.874375832546 0.9954587986582 -6.850731304755 0.9954587986582 -6.850731304755 0.0747873655463 81.877314086085
0.300000000000000 0.0773112450068 81.660080660913 0.9952333970156 -7.084286643697 0.9952333970156 -7.084286643697 0.0773119337290 81.663089547520
0.310000000000000 0.0798330401652 81.444930143148 0.9950021831368 -7.317722602662 0.9950021831368 -7.317722602662 0.0798337265659 81.448009381797
0.320000000000000 0.0823520032658 81.229014401450 0.9947651754353 -7.551037013512 0.9947651754353 -7.551037013512 0.0823526850209 81.232163845325
0.330000000000000 0.0848680753712 81.012412970719 0.9945223927655 -7.784227711741 0.9945223927655 -7.784227711741 0.0848687502971 81.015632587239
0.340000000000000 0.0873811977849 80.795196343714 0.9942738544199 -8.017292536722 0.9942738544199 -8.017292536722 0.0873818638347 80.798486197582
0.350000000000000 0.0898913120512 80.577427253193 0.9940195801276 -8.250229331943 0.9940195801276 -8.250229331943 0.0898919673120 80.580787491933
0.360000000000000 0.0923983599564 80.359161741811 0.9937595900520 -8.483035945259 0.9937595900520 -8.483035945259 0.0923990026455 80.362592583387
0.370000000000000 0.0949022835306 80.140450059662 0.9934939047884 -8.715710229134 0.9934939047884 -8.715710229134 0.0949029119927 80.143951781843
0.380000000000000 0.0974030250507 79.921337421017 0.9932225453620 -8.948250040889 0.9932225453620 -8.948250040889 0.0974036377543 79.924910352200
0.390000000000000 0.0999005270432 79.701864645342 0.9929455332255 -9.180653242947 0.9929455332255 -9.180653242947 0.0999011225778 79.705509156621
0.400000000000000 0.1023947322885 79.482068702753 0.9926628902568 -9.412917703085 0.9926628902568 -9.412917703085 0.1023953093609 79.485785201044
0.410000000000000 0.1048855838246 79.261983180099 0.9923746387566 -9.645041294674 0.9923746387566 -9.645041294674 0.1048861412558 79.265772102152
0.420000000000000 0.1073730249513 79.041638680825 0.9920808014457 -9.877021896936 0.9920808014457 -9.877021896936 0.1073735616735 79.045500488021
0.430000000000000 0.1098569992356 78.821063169353 0.9917814014629 -10.10885739518 0.9917814014629 -10.10885739518 0.1098575142887 78.824998343147
0.440000000000000 0.1123374505156 78.600282268718 0.9914764623620 -10.34054568108 0.9914764623620 -10.34054568108 0.1123379430443 78.604291306665
0.450000000000000 0.1148143229065 78.379319518735 0.9911660081092 -10.57208465286 0.9911660081092 -10.57208465286 0.1148147921566 78.383402931001
0.460000000000000 0.1172875608047 78.158196600628 0.9908500630806 -10.80347221562 0.9908500630806 -10.80347221562 0.1172880061207 78.162354906940
0.470000000000000 0.1197571088939 77.936933533123 0.9905286520591 -11.03470628152 0.9905286520591 -11.03470628152 0.1197575297153 77.941167260080
0.480000000000000 0.1222229121501 77.715548844116 0.9902018002315 -11.26578477006 0.9902018002315 -11.26578477006 0.1222233080083 77.719858522839
0.490000000000000 0.1246849158468 77.494059721412 0.9898695331857 -11.49670560833 0.9898695331857 -11.49670560833 0.1246852863622 77.498445885470
0.500000000000000 0.1271430655607 77.272482145429 0.9895318769076 -11.72746673122 0.9895318769076 -11.72746673122 0.1271434104393 77.276945329025
0.510000000000000 0.1295973071770 77.050831006349 0.9891888577779 -11.95806608170 0.9891888577779 -11.95806608170 0.1295976262076 77.055371742718
0.520000000000000 0.1320475868946 76.829120207775 0.9888405025689 -12.18850161105 0.9888405025689 -12.18850161105 0.1320478799457 76.833739027788
0.530000000000000 0.1344938512322 76.607362758701 0.9884868384413 -12.41877127911 0.9884868384413 -12.41877127911 0.1344941182488 76.612060189629
0.540000000000000 0.1369360470331 76.385570855266 0.9881278929409 -12.64887305450 0.9881278929409 -12.64887305450 0.1369362880338 76.390347419710
0.550000000000000 0.1393741214710 76.163755953616 0.9877636939949 -12.87880491490 0.9877636939949 -12.87880491490 0.1393743365450 76.168612168563
0.560000000000000 0.1418080220550 75.941928834966 0.9873942699088 -13.10856484726 0.9873942699088 -13.10856484726 0.1418082113592 75.946865210970
0.570000000000000 0.1442376966354 75.720099663811 0.9870196493622 -13.33815084805 0.9870196493622 -13.33815084805 0.1442378603914 75.725116704284
0.580000000000000 0.1466630934091 75.498278040128 0.9866398614058 -13.56756092347 0.9866398614058 -13.56756092347 0.1466632319001 75.503376240721
0.590000000000000 0.1490841609242 75.276473046255 0.9862549354574 -13.79679308975 0.9862549354574 -13.79679308975 0.1490842744925 75.281652894333
0.600000000000000 0.1515008480859 75.054693289088 0.9858649012977 -14.02584537333 0.9858649012977 -14.02584537333 0.1515009371297 75.059955263277
0.610000000000000 0.1539131041616 74.832946938009 0.9854697890655 -14.25471581115 0.9854697890654 -14.25471581114 0.1539131691368 74.838291507514
0.620000000000000 0.1563208787851 74.611241759759 0.9850696292613 -14.48340245063 0.9850696292613 -14.48340245063 0.1563209201847 74.616669385234
0.630000000000000 0.1587241219636 74.389585148446 0.9846644527272 -14.71190335045 0.9846644527272 -14.71190335045 0.1587241403416 74.395096279948
0.640000000000000 0.1611227840809 74.167984154746 0.9842542906589 -14.94021658022 0.9842542906589 -14.94021658022 0.1611227800315 74.173579232706
0.650000000000000 0.1635168159029 73.946445510903 0.9838391745939 -15.16834022096 0.9838391745939 -15.16834022096 0.1635167900628 73.952124965664
0.660000000000000 0.1659061685827 73.724975654035 0.9834191364080 -15.39627236531 0.9834191364080 -15.39627236531 0.1659061216280 73.730739905719
0.670000000000000 0.1682907936653 73.503580747237 0.9829942083118 -15.62401111774 0.9829942083118 -15.62401111774 0.1682907263089 73.509430205658
0.680000000000000 0.1706706430920 73.282266698816 0.9825644228458 -15.85155459474 0.9825644228458 -15.85155459474 0.1706705560813 73.288201763421
0.690000000000000 0.1730456692054 73.061039179832 0.9821298128762 -16.07890092508 0.9821298128762 -16.07890092508 0.1730455633194 73.067060239675
0.700000000000000 0.1754158247539 72.839903640127 0.9816904115902 -16.30604825001 0.9816904115902 -16.30604825001 0.1754157008007 72.846011073863
0.710000000000000 0.1777810628959 72.618865322979 0.9812462524914 -16.53299472346 0.9812462524914 -16.53299472346 0.1777809217105 72.625059498895
0.720000000000000 0.1801413372046 72.397929278522 0.9807973693955 -16.75973851229 0.9807973693955 -16.75973851229 0.1801411796460 72.404210554581
0.730000000000000 0.1824966016718 72.177100376053 0.9803437964250 -16.98627779646 0.9803437964250 -16.98627779646 0.1824964286211 72.183469099960
0.740000000000000 0.1848468107125 71.956383315321 0.9798855680048 -17.21261076925 0.9798855680048 -17.21261076925 0.1848466230702 71.962839824608
0.750000000000000 0.1871919191691 71.735782636899 0.9794227188574 -17.43873563748 0.9794227188574 -17.43873563748 0.1871917178528 71.742327259029
0.760000000000000 0.1895318823149 71.515302731725 0.9789552839978 -17.66465062170 0.9789552839978 -17.66465062170 0.1895316682570 71.521935784205
0.770000000000000 0.1918666558586 71.294947849885 0.9784832987287 -17.89035395638 0.9784832987287 -17.89035395638 0.1918664300042 71.301669640397
0.780000000000000 0.1941961959478 71.074722108702 0.9780067986355 -18.11584389014 0.9780067986355 -18.11584389014 0.1941959592522 71.081532935248
0.790000000000000 0.1965204591729 70.854629500205 0.9775258195809 -18.34111868589 0.9775258195809 -18.34111868589 0.1965202125998 70.861529651256
0.800000000000000 0.1988394025706 70.634673898015 0.9770403977005 -18.56617662108 0.9770403977005 -18.56617662108 0.1988391470898 70.641663652677
0.810000000000000 0.2011529836277 70.414859063717 0.9765505693969 -18.79101598786 0.9765505693969 -18.79101598786 0.2011527202130 70.421938691901
0.820000000000000 0.2034611602843 70.195188652744 0.9760563713349 -19.01563509326 0.9760563713349 -19.01563509326 0.2034608899113 70.202358415348
0.830000000000000 0.2057638909371 69.975666219829 0.9755578404363 -19.24003225938 0.9755578404363 -19.24003225938 0.2057636145818 69.982926368921
0.840000000000000 0.2080611344432 69.756295224052 0.9750550138743 -19.46420582359 0.9750550138743 -19.46420582359 0.2080608530793 69.763646003067
0.850000000000000 0.2103528501223 69.537079033520 0.9745479290685 -19.68815413867 0.9745479290685 -19.68815413867 0.2103525647199 69.544520677460
0.860000000000000 0.2126389977607 69.318020929711 0.9740366236792 -19.91187557302 0.9740366236792 -19.91187557302 0.2126387092842 69.325553665344
0.870000000000000 0.2149195376136 69.099124111499 0.9735211356024 -20.13536851079 0.9735211356024 -20.13536851079 0.2149192470199 69.106748157573
0.880000000000000 0.2171944304082 68.880391698905 0.9730015029639 -20.35863135211 0.9730015029639 -20.35863135211 0.2171941386450 68.888107266356
0.890000000000000 0.2194636373464 68.661826736573 0.9724777641142 -20.58166251317 0.9724777641142 -20.58166251317 0.2194633453504 68.669634028744
0.900000000000000 0.2217271201072 68.443432197012 0.9719499576226 -20.80446042646 0.9719499576226 -20.80446042646 0.2217268288028 68.451331409872
0.910000000000000 0.2239848408498 68.225210983613 0.9714181222722 -21.02702354090 0.9714181222722 -21.02702354090 0.2239845511469 68.233202305974
0.920000000000000 0.2262367622151 68.007165933453 0.9708822970536 -21.24935032196 0.9708822970536 -21.24935032196 0.2262364750081 68.015249547197
0.930000000000000 0.2284828473289 67.789299819919 0.9703425211600 -21.47143925186 0.9703425211600 -21.47143925186 0.2284825634950 67.797475900220
0.940000000000000 0.2307230598034 67.571615355143 0.9697988339812 -21.69328882970 0.9697988339812 -21.69328882970 0.2307227802011 67.579884070698
0.950000000000000 0.2329573637400 67.354115192290 0.9692512750980 -21.91489757160 0.9692512750980 -21.91489757160 0.2329570892075 67.362476705541
0.960000000000000 0.2351857237304 67.136801927680 0.9686998842766 -22.13626401085 0.9686998842766 -22.13626401085 0.2351854550848 67.145256395043
0.970000000000000 0.2374081048591 66.919678102778 0.9681447014628 -22.35738669802 0.9681447014628 -22.35738669802 0.2374078428947 66.928225674875
0.980000000000000 0.2396244727051 66.702746206055 0.9675857667765 -22.57826420115 0.9675857667765 -22.57826420115 0.2396242181921 66.711387027940
0.990000000000000 0.2418347933433 66.486008674726 0.9670231205056 -22.79889510581 0.9670231205056 -22.79889510581 0.2418345470269 66.494742886112
1.000000000000000 0.2440390333460 66.269467896378 0.9664568031008 -23.01927801530 0.9664568031008 -23.01927801530 0.2440387959451 66.278295631868
1.010000000000000 0.2462371597849 66.053126210494 0.9658868551695 -23.23941155069 0.9658868551695 -23.23941155069 0.2462369319909 66.062047599809
1.020000000000000 0.2484291402317 65.836985909884 0.9653133174699 -23.45929435101 0.9653133174699 -23.45929435101 0.2484289227077 65.846001078087
1.030000000000000 0.2506149427597 65.621049242021 0.9647362309058 -23.67892507336 0.9647362309058 -23.67892507336 0.2506147361394 65.630158309745
1.040000000000000 0.2527945359448 65.405318410296 0.9641556365203 -23.89830239296 0.9641556365203 -23.89830239296 0.2527943408316 65.414521493973
1.050000000000000 0.2549678888667 65.189795575205 0.9635715754902 -24.11742500332 0.9635715754902 -24.11742500332 0.2549677058326 65.199092787282
1.060000000000000 0.2571349711094 64.974482855445 0.9629840891205 -24.33629161633 0.9629840891205 -24.33629161633 0.2571348006947 64.983874304614
1.070000000000000 0.2592957527624 64.759382328963 0.9623932188380 -24.55490096236 0.9623932188380 -24.55490096236 0.2592955954742 64.768868120378
1.080000000000000 0.2614502044210 64.544496033929 0.9617990061862 -24.77325179032 0.9617990061862 -24.77325179032 0.2614500607332 64.554076269428
1.090000000000000 0.2635982971870 64.329825969660 0.9612014928193 -24.99134286783 0.9612014928193 -24.99134286783 0.2635981675394 64.339500747981
1.100000000000000 0.2657400026695 64.115374097481 0.9606007204963 -25.20917298123 0.9606007204963 -25.20917298123 0.2657398874668 64.125143514477
1.110000000000000 0.2678752929846 63.901142341544 0.9599967310753 -25.42674093573 0.9599967310753 -25.42674093573 0.2678751925964 63.911006490401
1.120000000000000 0.2700041407562 63.687132589595 0.9593895665080 -25.64404555543 0.9593895665080 -25.64404555543 0.2700040555162 63.697091561039
1.130000000000000 0.2721265191158 63.473346693700 0.9587792688335 -25.86108568346 0.9587792688335 -25.86108568346 0.2721264493215 63.483400576209
1.140000000000000 0.2742424017029 63.259786470924 0.9581658801733 -26.07786018202 0.9581658801733 -26.07786018202 0.2742423476150 63.269935350936
1.150000000000000 0.2763517626645 63.046453703982 0.9575494427247 -26.29436793244 0.9575494427247 -26.29436793244 0.2763517245067 63.056697666098
1.160000000000000 0.2784545766552 62.833350141846 0.9569299987561 -26.51060783528 0.9569299987561 -26.51060783528 0.2784545546140 62.843689269034
1.170000000000000 0.2805508188369 62.620477500321 0.9563075906003 -26.72657881038 0.9563075906003 -26.72657881038 0.2805508130612 62.630911874113
1.180000000000000 0.2826404648785 62.407837462590 0.9556822606498 -26.94227979688 0.9556822606498 -26.94227979688 0.2826404754794 62.418367163284
1.190000000000000 0.2847234909551 62.195431679733 0.9550540513506 -27.15770975337 0.9550540513506 -27.15770975337 0.2847235180060 62.206056786582
1.200000000000000 0.2867998737478 61.983261771211 0.9544230051968 -27.37286765782 0.9544230051968 -27.37286765782 0.2867999172842 61.993982362620
1.210000000000000 0.2888695904430 61.771329325337 0.9537891647250 -27.58775250773 0.9537891647250 -27.58775250773 0.2888696504624 61.782145479048
1.220000000000000 0.2909326187313 61.559635899708 0.9531525725087 -27.80236332012 0.9531525725087 -27.80236332012 0.2909326951933 61.570547692989
1.230000000000000 0.2929889368060 61.348183021426 0.9525132711496 -28.01669913163 0.9525132711496 -28.01669913163 0.2929890296413 61.359190530955
1.240000000000000 0.2950385235361 61.136972113463 0.9518713028935 -28.23075900750 0.9518713028935 -28.23075900750 0.2950386325831 61.148075414498
1.250000000000000 0.2970813582611 60.926004565578 0.9512267099656 -28.44454203143 0.9512267099656 -28.44454203143 0.2970814833212 60.937203731238
1.260000000000000 0.2991174206445 60.715281813969 0.9505795350086 -28.65804729677 0.9505795350086 -28.65804729677 0.2991175614745 60.726576919168
1.270000000000000 0.3011466908481 60.504805267067 0.9499298206775 -28.87127391665 0.9499298206775 -28.87127391665 0.3011468471700 60.516196388317
1.280000000000000 0.3031691495320 60.294576306006 0.9492776096379 -29.08422102395 0.9492776096379 -29.08422102395 0.3031693210334 60.306063521512
1.290000000000000 0.3051847778537 60.084596284886 0.9486229445606 -29.29688777133 0.9486229445606 -29.29688777133 0.3051849641880 60.096179674636
1.300000000000000 0.3071935574659 59.874866531017 0.9479658681157 -29.50927333125 0.9479658681157 -29.50927333125 0.3071937582535 59.886546176873
1.310000000000000 0.3091954705157 59.665388345163 0.9473064229678 -29.72137689599 0.9473064229678 -29.72137689599 0.3091956853441 59.677164330938
1.320000000000000 0.3111904996428 59.456163001761 0.9466446517706 -29.93319767768 0.9466446517706 -29.93319767768 0.3111907280675 59.468035413303
1.330000000000000 0.3131786279777 59.247191749145 0.9459805971615 -30.14473490826 0.9459805971615 -30.14473490826 0.3131788695229 59.259160674410
1.340000000000000 0.3151598391399 59.038475809757 0.9453143017565 -30.35598783955 0.9453143017565 -30.35598783955 0.3151600932993 59.050541338877
1.350000000000000 0.3171341172365 58.830016380341 0.9446458081452 -30.56695574319 0.9446458081452 -30.56695574319 0.3171343834740 58.842178605697
1.360000000000000 0.3191014468597 58.621814632148 0.9439751588853 -30.77763791069 0.9439751588853 -30.77763791069 0.3191017246102 58.634073648426
1.370000000000000 0.3210618130851 58.413871711116 0.9433023964980 -30.98803365341 0.9433023964980 -30.98803365341 0.3210621017556 58.426227615370
1.380000000000000 0.3230152014696 58.206188738056 0.9426275634626 -31.19814230252 0.9426275634626 -31.19814230252 0.3230155004398 58.218641629761
1.390000000000000 0.3249615980492 57.998766808825 0.9419507022117 -31.40796320905 0.9419507022117 -31.40796320905 0.3249619066727 58.011316789927
1.400000000000000 0.3269009893366 57.791606994500 0.9412718551264 -31.61749574379 0.9412718551264 -31.61749574379 0.3269013069418 57.804254169463
1.410000000000000 0.3288333623190 57.584710341541 0.9405910645310 -31.82673929738 0.9405910645310 -31.82673929738 0.3288336882101 57.597454817387
1.420000000000000 0.3307587044558 57.378077871955 0.9399083726888 -32.03569328018 0.9399083726888 -32.03569328018 0.3307590379140 57.390919758305
1.430000000000000 0.3326770036760 57.171710583450 0.9392238217968 -32.24435712232 0.9392238217968 -32.24435712232 0.3326773439604 57.184649992554
1.440000000000000 0.3345882483756 56.965609449590 0.9385374539814 -32.45273027363 0.9385374539814 -32.45273027363 0.3345885947243 56.978646496362
1.450000000000000 0.3364924274149 56.759775419949 0.9378493112932 -32.66081220362 0.9378493112932 -32.66081220362 0.3364927790464 56.772910221984
1.460000000000000 0.3383895301162 56.554209420249 0.9371594357031 -32.86860240147 0.9371594357031 -32.86860240147 0.3383898862304 56.567442097854
1.470000000000000 0.3402795462606 56.348912352515 0.9364678690973 -33.07610037592 0.9364678690973 -33.07610037592 0.3402799060401 56.362243028718
1.480000000000000 0.3421624660853 56.143885095208 0.9357746532728 -33.28330565533 0.9357746532728 -33.28330565533 0.3421628286965 56.157313895775
1.490000000000000 0.3440382802809 55.939128503368 0.9350798299333 -33.49021778755 0.9350798299333 -33.49021778755 0.3440386448755 55.952655556812
1.500000000000000 0.3459069799881 55.734643408752 0.9343834406844 -33.69683633989 0.9343834406844 -33.69683633989 0.3459073457042 55.748268846336
1.510000000000000 0.3477685567950 55.530430619968 0.9336855270296 -33.90316089911 0.9336855270296 -33.90316089911 0.3477689227586 55.544154575706
1.520000000000000 0.3496230027339 55.326490922609 0.9329861303661 -34.10919107132 0.9329861303661 -34.10919107132 0.3496233680599 55.340313533262
1.530000000000000 0.3514703102781 55.122825079384 0.9322852919804 -34.31492648195 0.9322852919804 -34.31492648195 0.3514706740721 55.136746484453
1.540000000000000 0.3533104723386 54.919433830252 0.9315830530441 -34.52036677565 0.9315830530441 -34.52036677565 0.3533108336981 54.933454171967
1.550000000000000 0.3551434822611 54.716317892551 0.9308794546103 -34.72551161629 0.9308794546103 -34.72551161629 0.3551438402770 54.730437315853
1.560000000000000 0.3569693338225 54.513477961124 0.9301745376089 -34.93036068684 0.9301745376089 -34.93036068684 0.3569696875804 54.527696613646
1.570000000000000 0.3587880212278 54.310914708451 0.9294683428435 -35.13491368932 0.9294683428435 -35.13491368932 0.3587883698094 54.325232740495
1.580000000000000 0.3605995391063 54.108628784776 0.9287609109868 -35.33917034475 0.9287609109868 -35.33917034475 0.3605998815911 54.123046349283
1.590000000000000 0.3624038825084 53.906620818231 0.9280522825772 -35.54313039303 0.9280522825772 -35.54313039303 0.3624042179750 53.921138070749
1.600000000000000 0.3642010469018 53.704891414966 0.9273424980149 -35.74679359290 0.9273424980149 -35.74679359290 0.3642013744296 53.719508513616
1.610000000000000 0.3659910281685 53.503441159272 0.9266315975582 -35.95015972184 0.9266315975582 -35.95015972184 0.3659913468390 53.518158264706
1.620000000000000 0.3677738226005 53.302270613711 0.9259196213201 -36.15322857601 0.9259196213201 -36.15322857601 0.3677741314990 53.317087889068
1.630000000000000 0.3695494268968 53.101380319238 0.9252066092646 -36.35599997013 0.9252066092646 -36.35599997013 0.3695497251138 53.116297930096
1.640000000000000 0.3713178381590 52.900770795329 0.9244926012031 -36.55847373744 0.9244926012031 -36.55847373744 0.3713181247919 52.915788909655
1.650000000000000 0.3730790538884 52.700442540107 0.9237776367912 -36.76064972957 0.9237776367912 -36.76064972957 0.3730793280428 52.715561328197
1.660000000000000 0.3748330719815 52.500396030466 0.9230617555253 -36.96252781645 0.9230617555253 -36.96252781645 0.3748333327731 52.515615664890
1.670000000000000 0.3765798907264 52.300631722198 0.9223449967393 -37.16410788627 0.9223449967393 -37.16410788627 0.3765801372824 52.315952377733
1.680000000000000 0.3783195087993 52.101150050122 0.9216273996014 -37.36538984529 0.9216273996014 -37.36538984529 0.3783197402601 52.116571903686
1.690000000000000 0.3800519252601 51.901951428206 0.9209090031108 -37.56637361783 0.9209090031108 -37.56637361783 0.3800521407808 51.917474658787
1.700000000000000 0.3817771395490 51.703036249699 0.9201898460950 -37.76705914613 0.9201898460950 -37.76705914613 0.3817773383007 51.718661038278
1.710000000000000 0.3834951514819 51.504404887253 0.9194699672064 -37.96744639022 0.9194699672064 -37.96744639022 0.3834953326540 51.520131416730
1.720000000000000 0.3852059612471 51.306057693056 0.9187494049197 -38.16753532788 0.9187494049197 -38.16753532788 0.3852061240483 51.321886148162
1.730000000000000 0.3869095694010 51.107994998956 0.9180281975286 -38.36732595448 0.9180281975286 -38.36732595448 0.3869097130609 51.123925566170
1.740000000000000 0.3886059768637 50.910217116593 0.9173063831435 -38.56681828289 0.9173063831435 -38.56681828289 0.3886061006350 50.926249984054
1.750000000000000 0.3902951849159 50.712724337525 0.9165839996884 -38.76601234336 0.9165839996884 -38.76601234336 0.3902952880751 50.728859694936
1.760000000000000 0.3919771951936 50.515516933363 0.9158610848983 -38.96490818343 0.9158610848983 -38.96490818343 0.3919772770434 50.531754971894
1.770000000000000 0.3936520096850 50.318595155894 0.9151376763169 -39.16350586780 0.9151376763169 -39.16350586780 0.3936520695555 50.334936068086
1.780000000000000 0.3953196307259 50.121959237220 0.9144138112935 -39.36180547818 0.9144138112935 -39.36180547818 0.3953196679760 50.138403216876
1.790000000000000 0.3969800609955 49.925609389882 0.9136895269810 -39.55980711325 0.9136895269810 -39.55980711325 0.3969800750149 49.942156631964
1.800000000000000 0.3986333035127 49.729545806997 0.9129648603334 -39.75751088848 0.9129648603334 -39.75751088848 0.3986332937231 49.746196507514
1.810000000000000 0.4002793616279 49.533768662279 0.9122398480992 -39.95491693596 0.9122398480990 -39.95491693596 0.4002793274980 49.550523017709
1.820000000000000 0.4019182403354 49.338278665191 0.9115145306498 -40.15202550463 0.9115145306498 -40.15202550463 0.4019181815309 49.355136877876
1.830000000000000 0.4035499450154 49.143076489082 0.9107889480759 -40.34883686566 0.9107889480759 -40.34883686566 0.4035498614947 49.160038765730
1.840000000000000 0.4051744801136 48.948162222025 0.9100631364115 -40.54535120887 0.9100631364115 -40.54535120887 0.4051743718818 48.965228772531
1.850000000000000 0.4067918503764 48.753535927654 0.9093371314339 -40.74156873921 0.9093371314339 -40.74156873921 0.4067917174986 48.770706964629
1.860000000000000 0.4084020608484 48.559197645463 0.9086109686657 -40.93748967659 0.9086109686657 -40.93748967659 0.4084019034501 48.576473384216
1.870000000000000 0.4100051168673 48.365147391000 0.9078846833726 -41.13311425564 0.9078846833726 -41.13311425564 0.4100049351342 48.382528049517
1.880000000000000 0.4116010240581 48.171385156050 0.9071583105612 -41.32844272549 0.9071583105612 -41.32844272549 0.4116008182361 48.188870954979
1.890000000000000 0.4131897883280 47.977910908841 0.9064318849767 -41.52347534957 0.9064318849767 -41.52347534957 0.4131895587229 47.995502071469
1.900000000000000 0.4147714158604 47.784724594241 0.9057054411014 -41.71821240538 0.9057054411014 -41.71821240538 0.4147711628377 47.802421346476
1.910000000000000 0.4163459131102 47.591826133965 0.9049790131527 -41.91265418426 0.9049790131527 -41.91265418426 0.4163456370939 47.609628704310
1.920000000000000 0.4179132867974 47.399215426787 0.9042526350814 -42.10680099115 0.9042526350814 -42.10680099115 0.4179129882698 47.417124046319
1.930000000000000 0.4194735439024 47.206892348750 0.9035263405699 -42.30065314441 0.9035263405699 -42.30065314441 0.4194732234028 47.224907251094
1.940000000000000 0.4210266916600 47.014856753385 0.9028001630311 -42.49421097554 0.9028001630311 -42.49421097554 0.4210263497839 47.032978174693
1.950000000000000 0.4225727375543 46.823108471933 0.9020741356068 -42.68747482898 0.9020741356068 -42.68747482898 0.4225723749518 46.841336650859
1.960000000000000 0.4241116893130 46.631647313569 0.9013482911661 -42.88044506189 0.9013482911661 -42.88044506189 0.4241113066876 46.649982491243
1.970000000000000 0.4256435549020 46.440473065627 0.9006226623051 -43.07312204387 0.9006226623051 -43.07312204387 0.4256431530087 46.458915485634
1.980000000000000 0.4271683425200 46.249585493834 0.8998972813448 -43.26550615681 0.8998972813448 -43.26550615681 0.4271679221638 46.268135402189
1.990000000000000 0.4286860605933 46.058984342542 0.8991721803309 -43.45759779459 0.8991721803309 -43.45759779459 0.4286856226269 46.077641987668
2.000000000000000 0.4301967177700 45.868669334965 0.8984473910324 -43.64939736285 0.8984473910324 -43.64939736285 0.4301962630918 45.887434967670
2.010000000000000 0.4317003229148 45.678640173416 0.8977229449414 -43.84090527883 0.8977229449414 -43.84090527883 0.4316998524663 45.697514046876
2.020000000000000 0.4331968851037 45.488896539552 0.8969988732717 -44.03212197105 0.8969988732717 -44.03212197105 0.4331963998673 45.507878909288
2.030000000000000 0.4346864136187 45.299438094618 0.8962752069590 -44.22304787912 0.8962752069590 -44.22304787912 0.4346859146145 45.318529218479
2.040000000000000 0.4361689179422 45.110264479690 0.8955519766599 -44.41368345353 0.8955519766599 -44.41368345353 0.4361684062253 45.129464617837
2.050000000000000 0.4376444077522 44.921375315927 0.8948292127514 -44.60402915536 0.8948292127514 -44.60402915536 0.4376438844093 44.940684730819
2.060000000000000 0.4391128929165 44.732770204821 0.8941069453313 -44.79408545611 0.8941069453313 -44.79408545611 0.4391123590630 44.752189161202
2.070000000000000 0.4405743834877 44.544448728448 0.8933852042174 -44.98385283742 0.8933852042174 -44.98385283742 0.4405738402637 44.563977493337
2.080000000000000 0.4420288896984 44.356410449727 0.8926640189473 -45.17333179086 0.8926640189473 -45.17333179086 0.4420283382650 44.376049292410
2.090000000000000 0.4434764219552 44.168654912670 0.8919434187791 -45.36252281770 0.8919434187791 -45.36252281770 0.4434758634906 44.188404104695
2.100000000000000 0.4449169908343 43.981181642644 0.8912234326905 -45.55142642869 0.8912234326905 -45.55142642869 0.4449164265298 44.001041457819
2.110000000000000 0.4463506070761 43.793990146630 0.8905040893800 -45.74004314382 0.8905040893800 -45.74004314382 0.4463500381312 43.813960861022