! Sonnet Data File
! From: sonnet Version : 18.53-Lite
! From Emgraph Data: 
! Data File Written: 04/03/2024 20:13:47
!< HDATE 04/03/2024 20:13:21
!< MDATE 04/03/2024 20:13:21
!< PARAMS
!< W_L = 200.0
!< W_1 = 200.0
!< END PARAMS
# GHZ S MA R 50.00000
0.100000000000000 0.3252124772932 177.72263762798 0.6703774512372 0.2014867026401 0.6550083807303 -2.374956022416
                  0.6703774512372 0.2014867026393 0.3235311031747 177.08974756826 0.6532795646586 -2.686917387527
                  0.6550083807303 -2.374956022413 0.6532795646585 -2.686917387523 0.3103907261208 171.50986513944
0.110000000000000 0.3251529063221 177.50785847628 0.6704662569113 0.2186831857743 0.6548965808843 -2.602742331929
                  0.6704662569113 0.2186831857743 0.3234742675703 176.81598100392 0.6531590845899 -2.944443030132
                  0.6548965808843 -2.602742331929 0.6531590845899 -2.944443030132 0.3105698694657 170.70439068075
0.120000000000000 0.3250911467374 177.29317986673 0.6705615924052 0.2357617645577 0.6547797740544 -2.830441462020
                  0.6705615924052 0.2357617645577 0.3234158035367 176.54229176730 0.6530333961685 -3.201882541825
                  0.6547797740544 -2.830441462020 0.6530333961685 -3.201882541825 0.3107754169552 169.90004876434
0.130000000000000 0.3250272028299 177.07860498586 0.6706634379430 0.2527160911517 0.6546579711823 -3.058049948498
                  0.6706634379430 0.2527160911517 0.3233557168182 176.26868476702 0.6529025104420 -3.459232398992
                  0.6546579711823 -3.058049948498 0.6529025104420 -3.459232398992 0.3110072464017 169.09694609283
0.140000000000000 0.3249610791039 176.86413701141 0.6707717728102 0.2695398558645 0.6545311837010 -3.285564336519
                  0.6707717728102 0.2695398558645 0.3232940133135 175.99516490348 0.6527664389605 -3.716489087345
                  0.6545311837010 -3.285564336519 0.6527664389605 -3.716489087345 0.3112652262635 168.29518803483
0.150000000000000 0.3248927802765 176.64977911191 0.6708865753610 0.2862267889461 0.6543994235324 -3.512981180985
                  0.6708865753610 0.2862267889461 0.3232306990745 175.72173706838 0.6526251937735 -3.973649102342
                  0.6543994235324 -3.512981180985 0.6526251937735 -3.973649102342 0.3115492158098 167.49487851914
0.160000000000000 0.3248223112758 176.43553444625 0.6710078230265 0.3027706623479 0.6542627030841 -3.740297046945
                  0.6710078230265 0.3027706623479 0.3231657803050 175.44840614423 0.6524787874270 -4.230708949591
                  0.6542627030841 -3.740297046945 0.6524787874270 -4.230708949591 0.3118590652983 166.69611993296
0.170000000000000 0.3247496772396 176.22140616331 0.6711354923233 0.3191652914517 0.6541210352468 -3.967508510002
                  0.6711354923233 0.3191652914517 0.3230992633594 175.17517700390 0.6523272329606 -4.487665145253
                  0.6541210352468 -3.967508510002 0.6523272329606 -4.487665145253 0.3121946161624 165.89901302417
0.180000000000000 0.3246748835143 176.00739740157 0.6712695588620 0.3354045367813 0.6539744333907 -4.194612156706
                  0.6712695588620 0.3354045367813 0.3230311547415 174.90205451013 0.6521705439041 -4.744514216442
                  0.6539744333907 -4.194612156706 0.6521705439041 -4.744514216442 0.3125557012086 165.10365680804
0.190000000000000 0.3245979356534 175.79351128872 0.6714099973566 0.3514823056750 0.6538229113629 -4.421604584955
                  0.6714099973566 0.3514823056750 0.3229614611028 174.62904351506 0.6520087342745 -5.001252701620
                  0.6538229113629 -4.421604584955 0.6520087342745 -5.001252701620 0.3129421448236 164.31014847851
0.200000000000000 0.3245188394160 175.57975094127 0.6715567816335 0.3673925539333 0.6536664834833 -4.648482404384
                  0.6715567816335 0.3673925539333 0.3228901892415 174.35614885977 0.6518418185724 -5.257877150996
                  0.6536664834833 -4.648482404384 0.6518418185724 -5.257877150996 0.3133537631898 163.51858332420
0.210000000000000 0.3244376007652 175.36611946415 0.6717098846414 0.3831292874331 0.6535051645420 -4.875242236758
                  0.6717098846414 0.3831292874331 0.3228173461004 174.08337537379 0.6516698117786 -5.514384126906
                  0.6535051645420 -4.875242236758 0.6516698117786 -5.514384126906 0.3137903645090 162.72905464931
0.220000000000000 0.3243542258666 175.15261995039 0.6718692784612 0.3986865637126 0.6533389697951 -5.101880716358
                  0.6718692784612 0.3986865637126 0.3227429387663 173.81072787467 0.6514927293505 -5.770770204212
                  0.6533389697951 -5.101880716358 0.6514927293505 -5.770770204212 0.3142517492336 161.94165369950
0.230000000000000 0.3242687210868 174.93925548068 0.6720349343161 0.4140584935263 0.6531679149615 -5.328394490358
                  0.6720349343161 0.4140584935263 0.3226669744676 173.53821116750 0.6513105872185 -6.027031970675
                  0.6531679149615 -5.328394490358 0.6513105872185 -6.027031970675 0.3147377103052 161.15646959297
0.240000000000000 0.3241810929916 174.72602912304 0.6722068225826 0.4292392423552 0.6529920162190 -5.554780219215
                  0.6722068225826 0.4292392423552 0.3225894605732 173.26583004447 0.6511234017821 -6.283166027343
                  0.6529920162190 -5.554780219215 0.6511234017821 -6.283166027343 0.3152480333986 160.37358925664
0.250000000000000 0.3240913483445 174.51294393242 0.6723849128006 0.4442230319022 0.6528112902003 -5.781034577033
                  0.6723849128006 0.4442230319022 0.3225104045911 172.99358928439 0.6509311899059 -6.539168988919
                  0.6528112902003 -5.781034577033 0.6509311899059 -6.539168988919 0.3157824971722 159.59309736763
0.260000000000000 0.3239994941045 174.30000295038 0.6725691736851 0.4590041415343 0.6526257539894 -6.007154251942
                  0.6725691736851 0.4590041415343 0.3224298141661 172.72149365229 0.6507339689158 -6.795037484141
                  0.6526257539894 -6.007154251942 0.6507339689158 -6.795037484141 0.3163408735229 158.81507630007
0.270000000000000 0.3239055374250 174.08720920468 0.6727595731372 0.4735769097005 0.6524354251173 -6.233135946464
                  0.6727595731372 0.4735769097005 0.3223476970788 172.44954789892 0.6505317565946 -7.050768156146
                  0.6524354251173 -6.233135946464 0.6505317565946 -7.050768156146 0.3169229278454 158.03960607711
0.280000000000000 0.3238094856512 173.87456570897 0.6729560782557 0.4879357353092 0.6522403215579 -6.458976377875
                  0.6729560782557 0.4879357353092 0.3222640612437 172.17775676037 0.6503245711782 -7.306357662833
                  0.6522403215579 -6.458976377875 0.6503245711782 -7.306357662833 0.3175284192951 157.26676432838
0.290000000000000 0.3237113463190 173.66207546240 0.6731586553490 0.5020750790695 0.6520404617240 -6.684672278568
                  0.6731586553490 0.5020750790695 0.3221789147073 171.90612495757 0.6501124313509 -7.561802677229
                  0.6520404617240 -6.684672278568 0.6501124313509 -7.561802677229 0.3181571010542 156.49662625253
0.300000000000000 0.3236111271524 173.44974144930 0.6733672699471 0.5159894647980 0.6518358644626 -6.910220396405
                  0.6733672699471 0.5159894647980 0.3220922656466 171.63465719592 0.6498953562414 -7.817099887839
                  0.6518358644626 -6.910220396405 0.6498953562414 -7.817099887839 0.3188087206004 155.72926458523
0.310000000000000 0.3235088360621 173.23756663880 0.6735818868138 0.5296734806838 0.6516265490509 -7.135617495073
                  0.6735818868138 0.5296734806838 0.3220041223673 171.36335816481 0.6496733654180 -8.072245999006
                  0.6516265490509 -7.135617495073 0.6496733654180 -8.072245999006 0.3194830199763 154.96474957212
0.320000000000000 0.3234044811428 173.02555398454 0.6738024699594 0.5431217805184 0.6514125351915 -7.360860354424
                  0.6738024699594 0.5431217805184 0.3219144933019 171.09223253724 0.6494464788841 -8.327237731247
                  0.6514125351915 -7.360860354424 0.6494464788841 -8.327237731247 0.3201797360616 154.20314894698
0.330000000000000 0.3232980706722 172.81370642430 0.6740289826532 0.5563290848841 0.6511938430082 -7.585945770827
                  0.6740289826532 0.5563290848841 0.3218233870078 170.82128496938 0.6492147170736 -8.582071821607
                  0.6511938430082 -7.585945770827 0.6492147170736 -8.582071821607 0.3208986008444 153.44452791486
0.340000000000000 0.3231896131078 172.60202687968 0.6742613874365 0.5692901823063 0.6509704930408 -7.810870557497
                  0.6742613874365 0.5692901823063 0.3217308121658 170.55052010013 0.6489781008462 -8.836745023994
                  0.6509704930408 -7.810870557497 0.6489781008462 -8.836745023994 0.3216393416935 152.68894914007
0.350000000000000 0.3230791170856 172.39051825575 0.6744996461356 0.5819999303623 0.6507425062407 -8.035631544837
                  0.6744996461356 0.5819999303623 0.3216367775778 170.27994255078 0.6487366514825 -9.091254109513
                  0.6507425062407 -8.035631544837 0.6487366514825 -9.091254109513 0.3224016816297 151.93647273893
0.360000000000000 0.3229665914177 172.17918344078 0.6747437198752 0.5944532567560 0.6505099039664 -8.260225580760
                  0.6747437198752 0.5944532567560 0.3215412921652 170.00955692454 0.6484903906791 -9.345595866796
                  0.6505099039664 -8.260225580760 0.6484903906791 -9.345595866796 0.3231853395962 151.18715627713
0.370000000000000 0.3228520450900 171.96802530587 0.6749935690918 0.6066451603451 0.6502727079777 -8.484649531018
                  0.6749935690918 0.6066451603451 0.3214443649670 169.73936780615 0.6482393405437 -9.599767102325
                  0.6502727079777 -8.484649531018 0.6482393405437 -9.599767102325 0.3239900307274 150.44105477159
0.380000000000000 0.3227354872600 171.75704670467 0.6752491535472 0.6185707121354 0.6500309404317 -8.708900279519
                  0.6752491535472 0.6185707121354 0.3213460051376 169.46937976152 0.6479835235898 -9.853764640757
                  0.6500309404317 -8.708900279519 0.6479835235898 -9.853764640757 0.3248154666155 149.69822069657
0.390000000000000 0.3226169272547 171.54625047306 0.6755104323426 0.6302250562264 0.6497846238772 -8.932974728646
                  0.6755104323426 0.6302250562264 0.3212462219448 169.19959733732 0.6477229627320 -10.10758532524
                  0.6497846238772 -8.932974728646 0.6477229627320 -10.10758532524 0.3256613555748 148.95870399395
0.400000000000000 0.3224963745683 171.33563942884 0.6757773639318 0.6416034107234 0.6495337812497 -9.156869799560
                  0.6757773639318 0.6416034107234 0.3211450247685 168.93002506058 0.6474576812801 -10.36122601771
                  0.6495337812497 -9.156869799560 0.6474576812801 -10.36122601771 0.3265274029031 148.22255208748
0.410000000000000 0.3223738388597 171.12521637145 0.6760499061364 0.6527010686054 0.6492784358663 -9.380582432511
                  0.6760499061364 0.6527010686054 0.3210424230976 168.66066743831 0.6471877029348 -10.61468359921
                  0.6492784358663 -9.380582432511 0.6471877029348 -10.61468359921 0.3274133111394 147.48980990075
0.420000000000000 0.3222493299505 170.91498408166 0.6763280161588 0.6635133985483 0.6490186114203 -9.604109587136
                  0.6763280161588 0.6635133985483 0.3209384265290 168.39152895717 0.6469130517813 -10.86795497020
                  0.6490186114203 -9.604109587136 0.6469130517813 -10.86795497020 0.3283187803183 146.76051987886
0.430000000000000 0.3221228578222 170.70494532129 0.6766116505973 0.6740358457138 0.6487543319762 -9.827448242753
                  0.6766116505973 0.6740358457138 0.3208330447649 168.12261408304 0.6466337522849 -11.12103705082
                  0.6487543319762 -9.827448242753 0.6466337522849 -11.12103705082 0.3292435082199 146.03472201335
0.440000000000000 0.3219944326141 170.49510283292 0.6769007654602 0.6842639324915 0.6484856219640 -10.05059539865
                  0.6769007654602 0.6842639324915 0.3207262876111 167.85392726068 0.6463498292845 -11.37392678123
                  0.6484856219640 -10.05059539865 0.6463498292845 -11.37392678123 0.3301871906154 145.31245387044
0.450000000000000 0.3218640646208 170.28545933964 0.6771953161805 0.6941932592018 0.6482125061739 -10.27354807438
                  0.6771953161805 0.6941932592018 0.3206181649747 167.58547291339 0.6460613079880 -11.62662112182
                  0.6482125061739 -10.27354807438 0.6460613079880 -11.62662112182 0.3311495215085 144.59375062220
0.460000000000000 0.3217317642896 170.07601754473 0.6774952576303 0.7038195047576 0.6479350097507 -10.49630331001
                  0.6774952576303 0.7038195047576 0.3205086868620 167.31725544264 0.6457682139661 -11.87911705359
                  0.6479350097507 -10.49630331001 0.6457682139661 -11.87911705359 0.3321301933706 143.87864508057
0.470000000000000 0.3215975422184 169.86678013142 0.6778005441356 0.7131384272833 0.6476531581887 -10.71885816645
                  0.6778005441356 0.7131384272833 0.3203978633767 167.04927922771 0.6454705731471 -12.13141157832
                  0.6476531581887 -10.71885816645 0.6454705731471 -12.13141157832 0.3331288973722 143.16716773400
0.480000000000000 0.3214614091528 169.65774976265 0.6781111294914 0.7221458646943 0.6473669773255 -10.94120972566
                  0.6781111294914 0.7221458646943 0.3202857047175 166.78154862536 0.6451684118107 -12.38350171893
                  0.6473669773255 -10.94120972566 0.6451684118107 -12.38350171893 0.3341453236075 142.45934678640
0.490000000000000 0.3213233759836 169.44892908076 0.6784269669759 0.7308377352354 0.6470764933366 -11.16335509094
                  0.6784269669759 0.7308377352354 0.3201722211759 166.51406796948 0.6448617565826 -12.63538451968
                  0.6470764933366 -11.16335509094 0.6448617565826 -12.63538451968 0.3351791613142 141.75520819842
0.500000000000000 0.3211834537447 169.24032070727 0.6787480093661 0.7392100379756 0.6467817327300 -11.38529138723
                  0.6787480093661 0.7392100379756 0.3200574231345 166.24684157080 0.6445506344287 -12.88705704646
                  0.6467817327300 -11.38529138723 0.6445506344287 -12.88705704646 0.3362300990872 141.05477573068
0.510000000000000 0.3210416536099 169.03192724266 0.6790742089524 0.7472588532671 0.6464827223401 -11.60701576127
                  0.6790742089524 0.7472588532671 0.3199413210641 165.97987371651 0.6442350726492 -13.13851638703
                  0.6464827223401 -11.60701576127 0.6442350726492 -13.13851638703 0.3372978250860 140.35807098887
0.520000000000000 0.3208979868908 168.82375126606 0.6794055175537 0.7549803431579 0.6461794893219 -11.82852538193
                  0.6794055175537 0.7549803431579 0.3198239255224 165.71316866996 0.6439150988726 -13.38975965129
                  0.6461794893219 -11.82852538193 0.6439150988726 -13.38975965129 0.3383820272364 139.66511347039
0.530000000000000 0.3207524650339 168.61579533509 0.6797418865324 0.7623707517702 0.6458720611454 -12.04981744041
                  0.6797418865324 0.7623707517702 0.3197052471512 165.44673067036 0.6435907410497 -13.64078397150
                  0.6458720611454 -12.04981744041 0.6435907410497 -13.64078397150 0.3394823934256 138.97592061260
0.540000000000000 0.3206050996182 168.40806198556 0.6800832668095 0.7694264056328 0.6455604655899 -12.27088915051
                  0.6800832668095 0.7694264056328 0.3195852966743 165.18056393247 0.6432620274482 -13.89158650250
                  0.6455604655899 -12.27088915051 0.6432620274482 -13.89158650250 0.3405986116912 138.29050784222
0.550000000000000 0.3204559023523 168.20055373131 0.6804296088799 0.7761437139794 0.6452447307375 -12.49173774881
                  0.6804296088799 0.7761437139794 0.3194640848956 164.91467264627 0.6429289866459 -14.14216442200
                  0.6452447307375 -12.49173774881 0.6429289866459 -14.14216442200 0.3417303704038 137.60888862591
0.560000000000000 0.3203048850721 167.99327306395 0.6807808628271 0.7825191690048 0.6449248849678 -12.71236049493
                  0.6807808628271 0.7825191690048 0.3193416226967 164.64906097669 0.6425916475253 -14.39251493074
                  0.6449248849678 -12.71236049493 0.6425916475253 -14.39251493074 0.3428773584429 136.93107452175
0.570000000000000 0.3201520597377 167.78622245267 0.6811369783389 0.7885493460816 0.6446009569516 -12.93275467175
                  0.6811369783389 0.7885493460816 0.3192179210347 164.38373306330 0.6422500392671 -14.64263525275
                  0.6446009569516 -12.93275467175 0.6422500392671 -14.64263525275 0.3440392653668 136.25707523152
0.580000000000000 0.3199974384311 167.57940434399 0.6814979047218 0.7942309039393 0.6442729756448 -13.15291758561
                  0.6814979047218 0.7942309039393 0.3190929909398 164.11869302004 0.6419041913442 -14.89252263557
                  0.6442729756448 -13.15291758561 0.6419041913442 -14.89252263557 0.3452157815752 135.58689865362
0.590000000000000 0.3198410333532 167.37282116163 0.6818635909167 0.7995605848067 0.6439409702830 -13.37284656653
                  0.6818635909167 0.7995605848067 0.3189668435137 163.85394493496 0.6415541335160 -15.14217435042
                  0.6439409702830 -13.37284656653 0.6415541335160 -15.14217435042 0.3464065984665 134.92055093643
0.600000000000000 0.3196828568213 167.16647530626 0.6822339855137 0.8045352145138 0.6436049703747 -13.59253896839
                  0.6822339855137 0.8045352145138 0.3188394899265 163.58949286990 0.6411998958214 -15.39158769243
                  0.6436049703747 -13.59253896839 0.6411998958214 -15.39158769243 0.3476114085878 134.25803653204
0.610000000000000 0.3195229212662 166.96036915530 0.6826090367672 0.8091517025591 0.6432650056958 -13.81199216918
                  0.6826090367672 0.8091517025591 0.3187109414153 163.32534086024 0.6408415085735 -15.64075998084
                  0.6432650056958 -13.81199216918 0.6408415085735 -15.64075998084 0.3488299057787 133.59935825020
0.620000000000000 0.3193612392298 166.75450506279 0.6829886926109 0.8134070421372 0.6429211062831 -14.03120357111
                  0.6829886926109 0.8134070421372 0.3185812092814 163.06149291466 0.6404790023527 -15.88968855918
                  0.6429211062831 -14.03120357111 0.6404790023527 -15.88968855918 0.3500617853085 132.94451731227
0.630000000000000 0.3191978233618 166.54888535917 0.6833729006727 0.8172983101352 0.6425733024285 -14.25017060087
                  0.6833729006727 0.8172983101352 0.3184503048884 162.79795301489 0.6401124080011 -16.13837079546
                  0.6425733024285 -14.25017060087 0.6401124080011 -16.13837079546 0.3513067440082 132.29351340526
0.640000000000000 0.3190326864176 166.34351235110 0.6837616082899 0.8208226670869 0.6422216246729 -14.46889070976
                  0.6837616082899 0.8208226670869 0.3183182396599 162.53472511540 0.6397417566156 -16.38680408235
                  0.6422216246729 -14.46889070976 0.6397417566156 -16.38680408235 0.3525644803944 131.64634473559
0.650000000000000 0.3188658412550 166.13838832132 0.6841547625237 0.8239773570979 0.6418661037998 -14.68736137391
                  0.6841547625237 0.8239773570979 0.3181850250771 162.27181314324 0.6393670795422 -16.63498583738
                  0.6418661037998 -14.68736137391 0.6393670795422 -16.63498583738 0.3538346947890 131.00300808264
0.660000000000000 0.3186973008318 165.93351552848 0.6845523101743 0.8267597077318 0.6415067708294 -14.90558009438
                  0.6845523101743 0.8267597077318 0.3180506726768 162.00922099775 0.6389884083695 -16.88291350303
                  0.6415067708294 -14.90558009438 0.6389884083695 -16.88291350303 0.3551170894318 130.36349885200
0.670000000000000 0.3185270782030 165.72889620697 0.6849541977956 0.8291671298656 0.6411436570125 -15.12354439740
                  0.6849541977956 0.8291671298656 0.3179151940491 161.74695255034 0.6386057749224 -17.13058454701
                  0.6411436570125 -15.12354439740 0.6386057749224 -17.13058454701 0.3564113685871 129.72781112817
0.680000000000000 0.3183551865178 165.52453256679 0.6853603717097 0.8311971175107 0.6407767938239 -15.34125183448
                  0.6853603717097 0.8311971175107 0.3177786008352 161.48501164429 0.6382192112562 -17.37799646230
                  0.6407767938239 -15.34125183448 0.6382192112562 -17.37799646230 0.3577172386451 129.09593772680
0.690000000000000 0.3181816390169 165.32042679337 0.6857707780214 0.8328472475989 0.6404062129570 -15.55869998257
                  0.6857707780214 0.8328472475989 0.3176409047249 161.22340209448 0.6378287496496 -17.62514676740
                  0.6404062129570 -15.55869998257 0.6378287496496 -17.62514676740 0.3590344082173 128.46787024630
0.700000000000000 0.3180064490301 165.11658104747 0.6861853626330 0.8341151797402 0.6400319463168 -15.77588644421
                  0.6861853626330 0.8341151797402 0.3175021174550 160.96212768725 0.6374344225990 -17.87203300641
                  0.6400319463168 -15.77588644421 0.6374344225990 -17.87203300641 0.3603625882260 127.84359911875
0.710000000000000 0.3178296299731 164.91299746503 0.6866040712588 0.8349986559476 0.6396540260144 -15.99280884766
                  0.6866040712588 0.8349986559476 0.3173622508066 160.70119218012 0.6370362628122 -18.11865274920
                  0.6396540260144 -15.99280884766 0.6370362628122 -18.11865274920 0.3617014919889 127.22311366010
0.720000000000000 0.3176511953447 164.70967815705 0.6870268494386 0.8354955003302 0.6392724843605 -16.20946484705
                  0.6870268494386 0.8354955003302 0.3172213166028 160.44059930167 0.6366343032018 -18.36500359152
                  0.6392724843605 -16.20946484705 0.6366343032018 -18.36500359152 0.3630508352984 126.60640211953
0.730000000000000 0.3174711587244 164.50662520943 0.6874536425529 0.8356036187561 0.6388873538594 -16.42585212249
                  0.6874536425529 0.8356036187561 0.3170793267071 160.18035275125 0.6362285768790 -18.61108315519
                  0.6388873538594 -16.42585212249 0.6362285768790 -18.61108315519 0.3644103364950 125.99345172798
0.740000000000000 0.3172895337695 164.30384068291 0.6878843958363 0.8353209984897 0.6384986672027 -16.64196838021
                  0.6878843958363 0.8353209984897 0.3169362930205 159.92045619890 0.6358191171477 -18.85688908812
                  0.6384986672027 -16.64196838021 0.6358191171477 -18.85688908812 0.3657797165366 125.38424874573
0.750000000000000 0.3171063342120 164.10132661292 0.6883190543917 0.8346457077948 0.6381064572632 -16.85781135268
                  0.6883190543917 0.8346457077948 0.3167922274798 159.66091328508 0.6354059574977 -19.10241906455
                  0.6381064572632 -16.85781135268 0.6354059574977 -19.10241906455 0.3671586990624 124.77877850909
0.760000000000000 0.3169215738565 163.89908500949 0.6887575632039 0.8335758955135 0.6377107570890 -17.07337879869
                  0.6887575632039 0.8335758955135 0.3166471420554 159.40172762056 0.6349891315989 -19.34767078505
                  0.6377107570890 -17.07337879869 0.6349891315989 -19.34767078505 0.3685470104522 124.17702547604
0.770000000000000 0.3167352665767 163.69711785714 0.6891998671539 0.8321097906172 0.6373115998970 -17.28866850348
                  0.6891998671539 0.8321097906172 0.3165010487488 159.14290278618 0.6345686732945 -19.59264197671
                  0.6373115998970 -17.28866850348 0.6345686732945 -19.59264197671 0.3699443798809 123.57897327091
0.780000000000000 0.3165474263132 163.49542711480 0.6896459110316 0.8302457017302 0.6369090190671 -17.50367827885
                  0.6896459110316 0.8302457017302 0.3163539595908 158.88444233278 0.6341446165956 -19.83733039319
                  0.6369090190671 -17.50367827885 0.6341446165956 -19.83733039319 0.3713505393690 122.98460472796
0.790000000000000 0.3163580670706 163.29401471570 0.6900956395501 0.8279820166282 0.6365030481358 -17.71840596324
                  0.6900956395501 0.8279820166282 0.3162058866391 158.62634978096 0.6337169956740 -20.08173381484
                  0.6365030481358 -17.71840596324 0.6337169956740 -20.08173381484 0.3727652238287 122.39390193397
0.800000000000000 0.3161672029146 163.09288256730 0.6905489973584 0.8253172017115 0.6360937207906 -17.93284942181
                  0.6905489973584 0.8253172017115 0.3160568419763 158.36862862099 0.6332858448570 -20.32585004878
                  0.6360937207906 -17.93284942181 0.6332858448570 -20.32585004878 0.3741881711054 121.80684626962
0.810000000000000 0.3159748479695 162.89203255123 0.6910059290547 0.8222498014541 0.6356810708635 -18.14700654655
                  0.6910059290547 0.8222498014541 0.3159068377079 158.11128231261 0.6328511986204 -20.56967692900
                  0.6356810708635 -18.14700654655 0.6328511986204 -20.56967692900 0.3756191220158 121.22341844990
0.820000000000000 0.3157810164154 162.69146652318 0.6914663791997 0.8187784378294 0.6352651323251 -18.36087525633
                  0.6914663791997 0.8187784378294 0.3157558859599 157.85431428495 0.6324130915827 -20.81321231639
                  0.6352651323251 -18.36087525633 0.6324130915827 -20.81321231639 0.3770578203818 120.64359856333
0.830000000000000 0.3155857224854 162.49118631285 0.6919302923289 0.8149018097126 0.6348459392787 -18.57445349700
                  0.6919302923289 0.8149018097126 0.3156039988769 157.59772793635 0.6319715584991 -21.05645409891
                  0.6348459392787 -18.57445349700 0.6319715584991 -21.05645409891 0.3785040130610 120.06736611006
0.840000000000000 0.3153889804633 162.29119372390 0.6923976129657 0.8106186922613 0.6344235259542 -18.78773924143
                  0.6923976129657 0.8106186922613 0.3154511886198 157.34152663426 0.6315266342551 -21.29940019153
                  0.6344235259542 -18.78773924143 0.6315266342551 -21.29940019153 0.3799574499733 119.49470003889
0.850000000000000 0.3151908046801 162.09149053387 0.6928682856337 0.8059279362749 0.6339979267022 -19.00073048961
                  0.6928682856337 0.8059279362749 0.3152974673642 157.08571371513 0.6310783538606 -21.54204853643
                  0.6339979267022 -19.00073048961 0.6310783538606 -21.54204853643 0.3814178841245 118.92557878309
0.860000000000000 0.3149912095123 161.89207849417 0.6933422548694 0.8008284675333 0.6335691759880 -19.21342526865
                  0.6933422548694 0.8008284675333 0.3151428472978 156.83029248424 0.6306267524438 -21.78439710293
                  0.6335691759880 -19.21342526865 0.6306267524438 -21.78439710293 0.3828850716261 118.35998029520
0.870000000000000 0.3147902093785 161.69295932996 0.6938194652339 0.7953192861161 0.6331373083857 -19.42582163290
                  0.6938194652339 0.7953192861161 0.3149873406185 156.57526621567 0.6301718652452 -22.02644388763
                  0.6331373083857 -19.42582163290 0.6301718652452 -22.02644388763 0.3843587717126 117.79788208061
0.880000000000000 0.3145878187372 161.49413474021 0.6942998613252 0.7893994657028 0.6327023585725 -19.63791766395
                  0.6942998613252 0.7893994657028 0.3148309595328 156.32063815214 0.6297137276114 -22.26818691444
                  0.6327023585725 -19.63791766395 0.6297137276114 -22.26818691444 0.3858387467552 117.23926123009
0.890000000000000 0.3143840520839 161.29560639756 0.6947833877900 0.7830681528533 0.6322643613227 -19.84971147067
                  0.6947833877900 0.7830681528533 0.3146737162531 156.06641150492 0.6292523749897 -22.50962423457
                  0.6322643613227 -19.84971147067 0.6292523749897 -22.50962423457 0.3873247622734 116.68409445115
0.900000000000000 0.3141789239487 161.09737594837 0.6952699893353 0.7763245662732 0.6318233515019 -20.06120118928
                  0.6952699893353 0.7763245662732 0.3145156229963 155.81258945379 0.6287878429215 -22.75075392666
                  0.6318233515019 -20.06120118928 0.6287878429215 -22.75075392666 0.3888165869430 116.13235809842
0.910000000000000 0.3139724488934 160.89944501267 0.6957596107401 0.7691679960611 0.6313793640613 -20.27238498334
                  0.6957596107401 0.7691679960611 0.3143566919815 155.55917514686 0.6283201670367 -22.99157409670
                  0.6313793640613 -20.27238498334 0.6283201670367 -22.99157409670 0.3903139926019 115.58402820280
0.920000000000000 0.3137646415093 160.70181518411 0.6962521968664 0.7615978029386 0.6309324340318 -20.48326104381
                  0.6962521968664 0.7615978029386 0.3141969354280 155.30617170061 0.6278493830480 -23.23208287817
                  0.6309324340318 -20.48326104381 0.6278493830480 -23.23208287817 0.3918167542539 115.03908049965
0.930000000000000 0.3135555164144 160.50448802999 0.6967476926704 0.7536134174683 0.6304825965186 -20.69382758905
                  0.6967476926704 0.7536134174683 0.3140363655537 155.05358219969 0.6273755267450 -23.47227843197
                  0.6304825965186 -20.69382758905 0.6273755267450 -23.47227843197 0.3933246500691 114.49749045591
0.940000000000000 0.3133450882508 160.30746509123 0.6972460432136 0.7452143392530 0.6300298866954 -20.90408286487
                  0.6972460432136 0.7452143392530 0.3138749945727 154.80140969696 0.6268986339882 -23.71215894649
                  0.6300298866954 -20.90408286487 0.6268986339882 -23.71215894649 0.3948374613833 113.95923329617
0.950000000000000 0.3131333716824 160.11074788234 0.6977471936734 0.7364001361249 0.6295743397988 -21.11402514447
                  0.6977471936734 0.7364001361249 0.3137128346939 154.54965721336 0.6264187407037 -23.95172263759
                  0.6295743397988 -21.11402514447 0.6264187407037 -23.95172263759 0.3963549726939 113.42428402766