! Sonnet Data File
! From: sonnet Version : 18.53-Lite
! From Emgraph Data: 
! Data File Written: 04/02/2024 18:02:15
!< HDATE 04/02/2024 17:59:59
!< MDATE 04/02/2024 17:59:59
!< PARAMS
!< L_C1 = 18000.0
!< W_C1 = 8000.0
!< W = 500.0
!< W_L = 200.0
!< END PARAMS
# GHZ S MA R 50.00000
0.100000000000000 0.1058541842409 -96.88057727601 0.9901189980554 -8.165462725063 0.9901189980554 -8.165462725065 0.1058626361609 -96.83897578745
0.110000000000000 0.1165117108910 -97.88003874921 0.9887252713835 -8.986385287708 0.9887252713835 -8.986385287708 0.1165547001029 -97.82373519372
0.120000000000000 0.1271887050361 -98.86081037868 0.9871920358101 -9.809186677419 0.9871920358101 -9.809186677419 0.1272465294328 -98.79949990694
0.130000000000000 0.1378849884266 -99.82706418916 0.9855197228781 -10.63386218974 0.9855197228781 -10.63386218974 0.1379430933811 -99.76430913183
0.140000000000000 0.1486010644468 -100.7820706842 0.9837083316983 -11.46048407042 0.9837083316983 -11.46048407042 0.1486496535139 -100.7186009481
0.150000000000000 0.1593377603228 -101.7284468707 0.9817573370383 -12.28916997418 0.9817573370383 -12.28916997418 0.1593709045078 -101.6638216020
0.160000000000000 0.1700960326512 -102.6683138226 0.9796657195968 -13.12006302581 0.9796657195968 -13.12006302581 0.1701107185074 -102.6017228065
0.170000000000000 0.1808768661917 -103.6034080203 0.9774320350789 -13.95331975910 0.9774320350789 -13.95331975910 0.1808721607438 -103.5340318641
0.180000000000000 0.1916812235025 -104.5351647504 0.9750544860348 -14.78910308312 0.9750544860348 -14.78910308312 0.1916576065280 -104.4623154681
0.190000000000000 0.2025100211305 -105.4647822609 0.9725309832314 -15.62757833255 0.9725309832314 -15.62757833255 0.2024688796248 -105.3879394621
0.200000000000000 0.2133641189482 -106.3932716547 0.9698591934999 -16.46891115346 0.9698591934999 -16.46891115346 0.2133073784931 -106.3120729420
0.210000000000000 0.2242443154859 -107.3214958519 0.9670365750570 -17.31326645092 0.9670365750570 -17.31326645092 0.2241741793747 -107.2357103617
0.220000000000000 0.2351513455581 -108.2502000797 0.9640604025703 -18.16080792970 0.9640604025703 -18.16080792970 0.2350701152746 -108.1596987578
0.230000000000000 0.2460858783497 -109.1800357742 0.9609277843367 -19.01169794990 0.9609277843367 -19.01169794990 0.2459958337851 -109.0847642116
0.240000000000000 0.2570485151111 -110.1115793612 0.9576356736233 -19.86609753445 0.9576356736233 -19.86609753445 0.2569518377479 -110.0115352070
0.250000000000000 0.2680397861124 -111.0453470540 0.9541808757998 -20.72416643504 0.9541808757998 -20.72416643504 0.2679385125852 -110.9405622514
0.260000000000000 0.2790601467488 -111.9818065524 0.9505600525041 -21.58606320379 0.9505600525041 -21.58606320379 0.2789561435314 -111.8723339027
0.270000000000000 0.2901099728029 -112.9213863283 0.9467697237657 -22.45194524182 0.9467697237657 -22.45194524182 0.2900049253273 -112.8072896469
0.280000000000000 0.3011895549074 -113.8644830242 0.9428062687639 -23.32196880952 0.9428062687639 -23.32196880952 0.3010849663284 -113.7458301433
0.290000000000000 0.3122990922664 -114.8114673717 0.9386659257191 -24.19628899059 0.9386659257191 -24.19628899059 0.3121962884824 -114.6883253311
0.300000000000000 0.3234386856839 -115.7626889458 0.9343447912805 -25.07505960635 0.9343447912805 -25.07505960635 0.3233388242404 -115.6351208245
0.310000000000000 0.3346083299404 -116.7184799959 0.9298388196828 -25.95843307805 0.9298388196828 -25.95843307805 0.3345124111682 -116.5865429518
0.320000000000000 0.3458079055471 -117.6791585437 0.9251438218738 -26.84656023619 0.9251438218738 -26.84656023619 0.3457167848085 -117.5429027234
0.330000000000000 0.3570371698961 -118.6450308907 0.9202554647761 -27.73959007538 0.9202554647761 -27.73959007538 0.3569515701808 -118.5044989556
0.340000000000000 0.3682957478181 -119.6163936525 0.9151692708087 -28.63766945330 0.9151692708087 -28.63766945330 0.3682162721889 -119.4716207293
0.350000000000000 0.3795831215527 -120.5935354061 0.9098806177797 -29.54094273124 0.9098806177797 -29.54094273124 0.3795102651256 -120.4445493200
0.360000000000000 0.3908986201325 -121.5767380192 0.9043847392467 -30.44955135361 0.9043847392467 -30.44955135361 0.3908327813992 -121.4235597086
0.370000000000000 0.4022414081795 -122.5662777182 0.8986767254346 -31.36363336237 0.8986767254346 -31.36363336237 0.4021828995703 -122.4089217544
0.380000000000000 0.4136104741124 -123.5624259353 0.8927515248001 -32.28332284202 0.8927515248001 -32.28332284202 0.4135595317552 -123.4009010964
0.390000000000000 0.4250046177642 -124.5654499691 0.8866039463288 -33.20874928969 0.8866039463288 -33.20874928969 0.4249614104335 -124.3997598308
0.400000000000000 0.4364224374109 -125.5756134850 0.8802286626571 -34.14003690390 0.8802286626571 -34.14003690390 0.4363870746890 -125.4057570036
0.410000000000000 0.4478623162163 -126.5931768771 0.8736202141111 -35.07730378468 0.8736202141111 -35.07730378468 0.4478348559022 -126.4191489478
0.420000000000000 0.4593224081022 -127.6183975059 0.8667730137616 -36.02066103666 0.8667730137616 -36.02066103666 0.4593028629138 -127.4401894874
0.430000000000000 0.4708006230598 -128.6515298268 0.8596813536003 -36.97021176532 0.8596813536003 -36.97021176532 0.4707889666796 -128.4691300249
0.440000000000000 0.4822946119228 -129.6928254171 0.8523394119447 -37.92604995574 0.8523394119447 -37.92604995574 0.4822907844388 -129.5062195262
0.450000000000000 0.4938017506343 -130.7425329118 0.8447412621895 -38.88825922108 0.8447412621895 -38.88825922108 0.4938056634264 -130.5517044124
0.460000000000000 0.5053191240463 -131.8008978507 0.8368808830262 -39.85691140692 0.8368808830262 -39.85691140692 0.5053306641679 -131.6058283648
0.470000000000000 0.5168435093024 -132.8681624444 0.8287521702572 -40.83206503511 0.8287521702572 -40.83206503511 0.5168625434024 -132.6688320504
0.480000000000000 0.5283713588655 -133.9445652602 0.8203489503402 -41.81376356907 0.8203489503402 -41.81376356907 0.5283977366954 -133.7409527694
0.490000000000000 0.5398987832683 -135.0303408313 0.8116649957987 -42.80203347928 0.8116649957987 -42.80203347928 0.5399323408129 -134.8224240292
0.500000000000000 0.5514215336746 -136.1257191908 0.8026940426425 -43.79688208515 0.8026940426425 -43.79688208515 0.5514620959439 -135.9134750454
0.510000000000000 0.5629349843606 -137.2309253310 0.7934298099437 -44.79829514547 0.7934298099437 -44.79829514547 0.5629823678754 -137.0143301721
0.520000000000000 0.5744341152389 -138.3461785898 0.7838660217158 -45.80623416538 0.7838660217158 -45.80623416538 0.5744881302412 -138.1252082613
0.530000000000000 0.5859134945690 -139.4716919644 0.7739964312443 -46.82063338292 0.7739964312443 -46.82063338292 0.5859739469841 -139.2463219516
0.540000000000000 0.5973672620185 -140.6076713520 0.7638148480169 -47.84139639158 0.7638148480169 -47.84139639158 0.5974339551937 -140.3778768886
0.550000000000000 0.6087891122579 -141.7543147196 0.7533151673984 -48.86839234819 0.7533151673984 -48.86839234819 0.6088618485000 -141.5200708743
0.560000000000000 0.6201722792974 -142.9118112023 0.7424914031909 -49.90145170611 0.7424914031909 -49.90145170611 0.6202508612290 -142.6730929485
0.570000000000000 0.6315095217948 -144.0803401322 0.7313377232136 -50.94036140287 0.7313377232136 -50.94036140287 0.6315937535477 -143.8371224026
0.580000000000000 0.6427931095874 -145.2600699986 0.7198484880279 -51.98485941750 0.7198484880279 -51.98485941750 0.6428827978482 -145.0123277261
0.590000000000000 0.6540148117242 -146.4511573417 0.7080182929236 -53.03462859618 0.7080182929235 -53.03462859619 0.6541097666484 -146.1988654889
0.600000000000000 0.6651658863011 -147.6537455828 0.6958420132708 -54.08928962440 0.6958420132708 -54.08928962440 0.6652659223039 -147.3968791605
0.610000000000000 0.6762370724093 -148.8679637947 0.6833148533198 -55.14839299595 0.6833148533198 -55.14839299595 0.6763420088540 -148.6064978715
0.620000000000000 0.6872185845565 -150.0939254145 0.6704323985394 -56.21140980059 0.6704323985394 -56.21140980059 0.6873282463389 -149.8278351189
0.630000000000000 0.6981001099014 -151.3317269077 0.6571906715418 -57.27772110574 0.6571906715418 -57.27772110574 0.6982143279485 -151.0609874224
0.640000000000000 0.7088708086877 -152.5814463861 0.6435861916535 -58.34660566034 0.6435861916535 -58.34660566034 0.7089894203742 -152.3060329372
0.650000000000000 0.7195193182555 -153.8431421901 0.6296160381767 -59.41722557962 0.6296160381767 -59.41722557962 0.7196421677478 -153.5630300308
0.660000000000000 0.7300337610234 -155.1168514423 0.6152779173869 -60.48860958585 0.6152779173869 -60.48860958585 0.7301606995557 -154.8320158320
0.670000000000000 0.7404017568273 -156.4025885836 0.6005702333298 -61.55963326959 0.6005702333298 -61.55963326959 0.7405326429172 -156.1130047630
0.680000000000000 0.7506104399976 -157.7003439020 0.5854921625114 -62.62899569309 0.5854921625114 -62.62899569309 0.7507451396055 -157.4059870661
0.690000000000000 0.7606464815398 -159.0100820692 0.5700437326391 -63.69519147047 0.5700437326391 -63.69519147047 0.7607848681767 -158.7109273362
0.700000000000000 0.7704961167558 -160.3317406967 0.5542259056691 -64.75647721226 0.5542259056691 -64.75647721226 0.7706380715441 -160.0277630754
0.710000000000000 0.7801451786088 -161.6652289292 0.5380406655786 -65.81083089373 0.5380406655786 -65.81083089373 0.7802905903001 -161.3564032845
0.720000000000000 0.7895791370880 -163.0104260911 0.5214911115141 -66.85590226606 0.5214911115141 -66.85590226606 0.7897279020400 -162.6967271077
0.730000000000000 0.7987831447689 -164.3671804042 0.5045815573250 -67.88895183403 0.5045815573250 -67.88895183403 0.7989351668860 -164.0485825491
0.740000000000000 0.8077420886954 -165.7353077971 0.4873176390019 -68.90677510993 0.4873176390019 -68.90677510993 0.8078972793350 -165.4117852811
0.750000000000000 0.8164406486262 -167.1145908239 0.4697064322875 -69.90560773057 0.4697064322875 -69.90560773057 0.8165989264730 -166.7861175627
0.760000000000000 0.8248633615937 -168.5047777154 0.4517565838053 -70.88100545743 0.4517565838053 -70.88100545743 0.8250246525055 -168.1713272897
0.770000000000000 0.8329946926178 -169.9055815815 0.4334784606192 -71.82769086824 0.4334784606192 -71.82769086824 0.8331589294437 -169.5671271970
0.780000000000000 0.8408191113009 -171.3166797870 0.4148843254232 -72.73935538810 0.4148843254232 -72.73935538810 0.8409862336753 -170.9731942338
0.790000000000000 0.8483211739076 -172.7377135201 0.3959885479292 -73.60840073193 0.3959885479292 -73.60840073193 0.8484911280206 -172.3891691324
0.800000000000000 0.8554856104029 -174.1682875733 0.3768078680422 -74.42559711266 0.3768078680422 -74.42559711266 0.8556583487512 -173.8146561889
0.810000000000000 0.8622974157918 -175.6079703550 0.3573617340021 -75.17962556057 0.3573617340021 -75.17962556057 0.8624728969095 -175.2492232747
0.820000000000000 0.8687419449704 -177.0562941473 0.3376727503379 -75.85645655908 0.3376727503379 -75.85645655908 0.8689201331437 -176.6924020947
0.830000000000000 0.8748050101722 -178.5127556245 0.3177672887403 -76.43849392926 0.3177672887403 -76.43849392926 0.8749858751387 -178.1436887062
0.840000000000000 0.8804729799744 -179.9768166430 0.2976763441280 -76.90337654154 0.2976763441280 -76.90337654154 0.8806564966096 -179.6025443085
0.850000000000000 0.8857328787229 178.55209468955 0.2774367658160 -77.22227273493 0.2774367658160 -77.22227273493 0.8859190267153 178.93160368735
0.860000000000000 0.8905724851438 177.07458266176 0.2570930732974 -77.35740941166 0.2570930732974 -77.35740941166 0.8907612486608 177.45936030537
0.870000000000000 0.8949804288427 175.59128232214 0.2367002024411 -77.25842647350 0.2367002024411 -77.25842647350 0.8951717961889 175.98136136857
0.880000000000000 0.8989462833467 174.10285756364 0.2163277669284 -76.85689994938 0.2163277669284 -76.85689994938 0.8991402466171 174.49827158272
0.890000000000000 0.9024606543309 172.60999893721 0.1960668482991 -76.05797794761 0.1960668482991 -76.05797794761 0.9026572090603 173.01078234963
0.900000000000000 0.9055152616818 171.11342120769 0.1760411088485 -74.72746168292 0.1760411088485 -74.72746168292 0.9057144064927 171.51960932266
0.910000000000000 0.9081030141012 169.61386066977 0.1564254463033 -72.67187303610 0.1564254463033 -72.67187303610 0.9083047503518 170.02548972227
0.920000000000000 0.9102180750282 168.11207224596 0.1374779158161 -69.60866351401 0.1374779158161 -69.60866351401 0.9104224064620 168.52917943365
0.930000000000000 0.9118559187708 166.60882639278 0.1195944451874 -65.12663627838 0.1195944451874 -65.12663627838 0.9120628511706 167.03144991253
0.940000000000000 0.9130133758795 165.10490584495 0.1033984715304 -58.65387120093 0.1033984715304 -58.65387120093 0.9132229167260 165.53308492906
0.950000000000000 0.9136886669595 163.60110223058 0.0898632476676 -49.51283689322 0.0898632476675 -49.51283689320 0.9139008250989 164.03487718263
0.960000000000000 0.9138814243184 162.09821259349 0.0803792468727 -37.27697120648 0.0803792468727 -37.27697120648 0.9140962096320 162.53762482388
0.970000000000000 0.9135927010329 160.59703585846 0.0764754311018 -22.59463072405 0.0764754311018 -22.59463072405 0.9138101241272 161.04212791978
0.980000000000000 0.9128249672761 159.09836928091 0.0789611710148 -7.645360134091 0.0789611710148 -7.645360134091 0.9130450391740 159.54918490298
0.990000000000000 0.9115820939290 157.60300491725 0.0872463457865 5.1886582562961 0.0872463457865 5.1886582562961 0.9118048257773 158.05958904193
1.000000000000000 0.9098693237597 156.11172615598 0.0998361504043 14.945046045439 0.0998361504043 14.945046045439 0.9100947265483 156.57412497188
1.010000000000000 0.9076932306516 154.62530434663 0.1152571440086 21.912271704538 0.1152571440086 21.912271704538 0.9079213149472 155.09356532365
1.020000000000000 0.9050616675752 153.14449556168 0.1324464817395 26.761137612190 0.1324464817395 26.761137612190 0.9052924432676 153.61866748546
1.030000000000000 0.9019837041757 151.67003752455 0.1507192685486 30.094559356257 0.1507192685486 30.094559356257 0.9022171802393 152.15017053086
1.040000000000000 0.8984695550116 150.20264673280 0.1696430925048 32.354222685267 0.1696430925048 32.354222685267 0.8987057392819 150.68879234194
1.050000000000000 0.8945304996113 148.74301580267 0.1889394706006 33.844942019897 0.1889394706006 33.844942019897 0.8947693985747 149.23522695392
1.060000000000000 0.8901787956101 147.29181105626 0.2084226066516 34.775179799555 0.2084226066516 34.775179799562 0.8904204142101 147.79014214242
1.070000000000000 0.8854276078596 145.84967063046 0.2279635515348 35.289031108156 0.2279635515348 35.289031108156 0.8856719479045 146.35417761030
1.080000000000000 0.8802908959908 144.41720213867 0.2474693314395 35.487907542884 0.2474693314395 35.487907542884 0.8805379548268 144.92794255703
1.090000000000000 0.8747832893437 142.99498082766 0.2668705649437 35.444631092394 0.2668705649437 35.444631092394 0.8750330603661 143.51201374987
1.100000000000000 0.8689200041015 141.58354860648 0.2861139046911 35.212556804354 0.2861139046911 35.212556804354 0.8691724764274 142.10693463296
1.110000000000000 0.8627167419386 140.18341303156 0.3051573134279 34.831527027400 0.3051573134279 34.831527027400 0.8629719001314 140.71321431269
1.120000000000000 0.8561895897307 138.79504657270 0.3239670224873 34.331821258124 0.3239670224873 34.331821258124 0.8564474135767 139.33132682428
1.130000000000000 0.8493549214429 137.41888615163 0.3425155187936 33.736823790551 0.3425155187936 33.736823790551 0.8496153857773 137.96171067100
1.140000000000000 0.8422293031957 136.05533294134 0.3607801759827 33.064858723656 0.3607801759827 33.064858723656 0.8424923777781 136.60476862451
1.150000000000000 0.8348294023841 134.70475241185 0.3787422980846 32.330474959774 0.3787422980846 32.330474959774 0.8350950518199 135.26086777201
1.160000000000000 0.8271719015925 133.36747460600 0.3963864329782 31.545361479640 0.3963864329782 31.545361479640 0.8274400852991 133.93033979344
1.170000000000000 0.8192734179116 132.04379462670 0.4136998656350 30.719009788463 0.4136998656350 30.719009788463 0.8195440901270 132.61348145066
1.180000000000000 0.8111504281322 130.73397331612 0.4306722333210 29.859200608424 0.4306722333210 29.859200608424 0.8114235379629 131.31055526873
1.190000000000000 0.8028192001577 129.43823810653 0.4472952249329 28.972366485126 0.4472952249329 28.972366485126 0.8030946916640 130.02179038918
1.200000000000000 0.7942957308558 128.15678402179 0.4635623393497 28.063865499109 0.4635623393497 28.063865499109 0.7945735431716 128.74738357423
1.210000000000000 0.7855956904555 126.88977480889 0.4794686858988 27.138190416994 0.4794686858988 27.138190416994 0.7858757579402 127.48750034143
1.220000000000000 0.7767343734905 125.63734417895 0.4950108154370 26.199130351751 0.4950108154370 26.199130351751 0.7770166259109 126.24227620809
1.230000000000000 0.7677266562014 124.39959713809 0.5101865741500 25.249897067502 0.5101865741500 25.249897067502 0.7680110189405 125.01181802583
1.240000000000000 0.7585869602253 123.17661138902 0.5249949746057 24.293224665893 0.5249949746057 24.293224665893 0.7588733545168 123.79620538635
1.250000000000000 0.7493292223383 121.96843878571 0.5394360802575 23.331449019187 0.5394360802575 23.331449019187 0.7496175655233 122.59549208060
1.260000000000000 0.7399668699590 120.77510682457 0.5535109007305 22.366571638978 0.5535109007305 22.366571638978 0.7402570757645 121.40970759484
1.270000000000000 0.7305128020788 119.59662015679 0.5672212960121 21.400311470740 0.5672212960121 21.400311470740 0.7308047809153 120.23885862827
1.280000000000000 0.7209793752552 118.43296210819 0.5805698882147 20.434147237785 0.5805698882147 20.434147237785 0.7212730345318 119.08293061860
1.290000000000000 0.7113783942776 117.28409619400 0.5935599799538 19.469352324990 0.5935599799538 19.469352324990 0.7116736387332 117.94188926308
1.300000000000000 0.7017211071081 116.14996761799 0.6061954786468 18.507023725569 0.6061954786468 18.507023725569 0.7020178391582 116.81568202413
1.310000000000000 0.6920182036925 115.03050474605 0.6184808262154 17.548106226278 0.6184808262154 17.548106226278 0.6923163237885 115.70423961018
1.320000000000000 0.6822798182380 113.92562054643 0.6304209337983 16.593412745276 0.6304209337983 16.593412745276 0.6825792252405 114.60747742344
1.330000000000000 0.6725155345671 112.83521398969 0.6420211211584 15.643641538966 0.6420211211584 15.643641538966 0.6728161261297 113.52529696810
1.340000000000000 0.6627343941638 111.75917140277 0.6532870605271 14.699390843243 0.6532870605271 14.699390843243 0.6630360671296 112.45758721308
1.350000000000000 0.6529449065523 110.69736777286 0.6642247246577 13.761171398459 0.6642247246577 13.761171398459 0.6532475573593 111.40422590525
1.360000000000000 0.6431550616627 109.64966799757 0.6748403388844 12.829417217605 0.6748403388844 12.829417217605 0.6434585867602 110.36508082956
1.370000000000000 0.6333723438625 108.61592807906 0.6851403369952 11.904494887169 0.6851403369952 11.904494887169 0.6336766401364 109.34001101383
1.380000000000000 0.6236037473568 107.59599626065 0.6951313207331 10.986711635205 0.6951313207331 10.986711635205 0.6239087125651 108.32886787665
1.390000000000000 0.6138557926829 106.58971410496 0.7048200227451 10.076322357831 0.7048200227451 10.076322357831 0.6141613258992 107.33149631763
1.400000000000000 0.6041345440494 105.59691751366 0.7142132728000 9.1735357609310 0.7142132728000 9.1735357609310 0.6044405461157 106.34773575008
1.410000000000000 0.5944456272945 104.61743768921 0.7233179670987 8.2785197463977 0.7233179670987 8.2785197463977 0.5947520012832 105.37742107643
1.420000000000000 0.5847942482616 103.65110203966 0.7321410404987 7.3914061501801 0.7321410404987 7.3914061501801 0.5851008999456 104.42038360770
1.430000000000000 0.5751852114128 102.69773502783 0.7406894414815 6.5122949216023 0.7406894414815 6.5122949216023 0.5754920497452 103.47645192840
1.440000000000000 0.5656229385221 101.75715896688 0.7489701096888 5.6412578189686 0.7489701096888 5.6412578189686 0.5659298761238 102.54545270865
1.450000000000000 0.5561114873105 100.82919476411 0.7569899558607 4.7783416846811 0.7569899558607 4.7783416846811 0.5564184409679 101.62721146593
1.460000000000000 0.5466545699048 99.913662615601 0.7647558440103 3.9235713534360 0.7647558440103 3.9235713534360 0.5469614610759 100.72155327863
1.470000000000000 0.5372555710181 99.010382653980 0.7722745756753 3.0769522390870 0.7722745756753 3.0769522390870 0.5375623263483 99.828303454226
1.480000000000000 0.5279175657665 98.119175552233 0.7795528760923 2.2384726391777 0.7795528760923 2.2384726391777 0.5282241176146 98.947288154785
1.490000000000000 0.5186433370531 97.239863086227 0.7865973821454 1.4081057906406 0.7865973821454 1.4081057906406 0.5189496240260 98.078334982764
1.500000000000000 0.5094353924585 96.372268658911 0.7934146319455 0.5858117055733 0.7934146319455 0.5858117055733 0.5097413599575 97.221273530117
1.510000000000000 0.5002959805960 95.516217789124 0.8000110559078 -0.228461187864 0.8000110559078 -0.228461187864 0.5006015813727 96.375935893797
1.520000000000000 0.4912271068929 94.671538568022 0.8063929691957 -1.034774577643 0.8063929691957 -1.034774577643 0.4915323016169 95.542157160816
1.530000000000000 0.4822305487748 93.838062086131 0.8125665654128 -1.833198954136 0.8125665654128 -1.833198954136 0.4825353066124 94.719775866039
1.540000000000000 0.4733078702338 93.015622834077 0.8185379114261 -2.623812433797 0.8185379114261 -2.623812433797 0.4736121694389 93.908634425943
1.550000000000000 0.4644604357712 92.204059080018 0.8243129432157 -3.406699705612 0.8243129432157 -3.406699705612 0.4647642642887 93.108579551575
1.560000000000000 0.4556894237093 91.403213226826 0.8298974626497 -4.181951087406 0.8298974626497 -4.181951087406 0.4559927797918 92.319462643995
1.570000000000000 0.4469958388753 90.612932152078 0.8352971350912 -4.949661680588 0.8352971350912 -4.949661680588 0.4472987317136 91.541140175490
1.580000000000000 0.4383805246612 89.833067533903 0.8405174877515 -5.709930613232 0.8405174877515 -5.709930613232 0.4386829750292 90.773474059912
1.590000000000000 0.4298441744698 89.063476165772 0.8455639087091 -6.462860362484 0.8455639087091 -6.462860362484 0.4301462153853 90.016332015510
1.600000000000000 0.4213873425596 88.304020263326 0.8504416465212 -7.208556148297 0.8504416465212 -7.208556148297 0.4216890199617 89.269587923732
1.610000000000000 0.4130104543040 87.554567766409 0.8551558103587 -7.947125391354 0.8551558103587 -7.947125391354 0.4133118277474 88.533122187499
1.620000000000000 0.4047138158805 86.814992639514 0.8597113706041 -8.678677228776 0.8597113706041 -8.678677228776 0.4050149592494 87.806822092633
1.630000000000000 0.3964976234106 86.085175173948 0.8641131598536 -9.403322081910 0.8641131598536 -9.403322081910 0.3967986256523 87.090582176183
1.640000000000000 0.3883619715695 85.365002295122 0.8683658742721 -10.12117127106 0.8683658742721 -10.12117127106 0.3886629374499 86.384304605623
1.650000000000000 0.3803068616865 84.654367878556 0.8724740752542 -10.83233667252 0.8724740752542 -10.83233667252 0.3806079125689 85.687899573061
1.660000000000000 0.3723322093572 83.953173078303 0.8764421913471 -11.53693041387 0.8764421913471 -11.53693041387 0.3726334840072 85.001285708879
1.670000000000000 0.3644378515912 83.261326671795 0.8802745203971 -12.23506460357 0.8802745203971 -12.23506460357 0.3647395070079 84.324390519511
1.680000000000000 0.3566235535130 82.578745425348 0.8839752318840 -12.92685109193 0.8839752318840 -12.92685109191 0.3569257657922 83.657150854466
1.690000000000000 0.3488889780945 81.905343891574 0.8875484372532 -13.61240317188 0.8875484372532 -13.61240317188 0.3491918856142 82.999492980182
1.700000000000000 0.3412337184204 81.241044603764 0.8909981250033 -14.29183410040 0.8909981250033 -14.29183410040 0.3415374139227 82.351350103551
1.710000000000000 0.3336573447841 80.585789607083 0.8943280946829 -14.96525471134 0.8943280946829 -14.96525471134 0.3339619291746 81.712684851547
1.720000000000000 0.3261593783816 79.939530807030 0.8975420271391 -15.63277487333 0.8975420271391 -15.63277487333 0.3264649611299 81.083471102679
1.730000000000000 0.3187392961807 79.302230528161 0.9006434873936 -16.29450336308 0.9006434873936 -16.29450336308 0.3190459957559 80.463694664563
1.740000000000000 0.3113965354686 78.673862129352 0.9036359275630 -16.95054775568 0.9036359275630 -16.95054775568 0.3117044798142 79.853354020455
1.750000000000000 0.3041304981001 78.054410684077 0.9065226898064 -17.60101433011 0.9065226898064 -17.60101433011 0.3044398251529 79.252461154736
1.760000000000000 0.2969405544647 77.443873735270 0.9093070092862 -18.24600798849 0.9093070092862 -18.24600798849 0.2972514127219 78.661042468662
1.770000000000000 0.2898260471906 76.842262135652 0.9119920171300 -18.88563218773 0.9119920171300 -18.88563218773 0.2901385963326 78.079139799271
1.780000000000000 0.2827862946052 76.249600985950 0.9145807433814 -19.51998888227 0.9145807433814 -19.51998888227 0.2831007061788 77.506811556131
1.790000000000000 0.2758205939683 75.665930685223 0.9170761199312 -20.14917847686 0.9170761199312 -20.14917847686 0.2761370521391 76.944133992813
1.800000000000000 0.2689282244959 75.091308109683 0.9194809834201 -20.77329978829 0.9194809834201 -20.77329978829 0.2692469268773 76.391202632467
1.810000000000000 0.2621084501909 74.525807938921 0.9217980781051 -21.39245001525 0.9217980781051 -21.39245001525 0.2624296087599 75.848133869946
1.820000000000000 0.2553605224973 73.969524151487 0.9240300586853 -22.00672471531 0.9240300586853 -22.00672471531 0.2556843646081 75.315066776449
1.830000000000000 0.2486836827953 73.422571715400 0.9261794930797 -22.61621778846 0.9261794930797 -22.61621778846 0.2490104523026 74.792165136959
1.840000000000000 0.2420771647509 72.885088503437 0.9282488651539 -23.22102146638 0.9282488651539 -23.22102146638 0.2424071232584 74.279619755812
1.850000000000000 0.2355401965399 72.357237468280 0.9302405773923 -23.82122630689 0.9302405773923 -23.82122630689 0.2358736247894 73.777651071802
1.860000000000000 0.2290720029596 71.839209118769 0.9321569535119 -24.41692119290 0.9321569535119 -24.41692119290 0.2294092023805 73.286512131579
1.870000000000000 0.2226718074466 71.331224346089 0.9340002410160 -25.00819333556 0.9340002410160 -25.00819333556 0.2230131018886 72.806491978844
1.880000000000000 0.2163388340192 70.833537657759 0.9357726136865 -25.59512828090 0.9357726136865 -25.59512828090 0.2166845716925 72.337919527530
1.890000000000000 0.2100723091608 70.346440888441 0.9374761740121 -26.17780991974 0.9374761740121 -26.17780991974 0.2104228648156 71.881168000063
1.900000000000000 0.2038714636668 69.870267470076 0.9391129555529 -26.75632050030 0.9391129555529 -26.75632050030 0.2042272410458 71.436660027563
1.910000000000000 0.1977355344747 69.405397360475 0.9406849252403 -27.33074064340 0.9406849252403 -27.33074064340 0.1980969690809 71.004873528080
1.920000000000000 0.1916637665036 68.952262749963 0.9421939856115 -27.90114935968 0.9421939856115 -27.90114935968 0.1920313287312 70.586348502706
1.930000000000000 0.1856554145282 68.511354691015 0.9436419769793 -28.46762406875 0.9436419769793 -28.46762406875 0.1860296132152 70.181694918601
1.940000000000000 0.1797097451209 68.083230827339 0.9450306795382 -29.03024061992 0.9450306795382 -29.03024061992 0.1800911315904 69.791601884305
1.950000000000000 0.1738260386970 67.668524438341 0.9463618154054 -29.58907331437 0.9463618154054 -29.58907331437 0.1742152113692 69.416848367925
1.960000000000000 0.1680035917066 67.267955064495 0.9476370505986 -30.14419492835 0.9476370505986 -30.14419492835 0.1684012013786 69.058315765532
1.970000000000000 0.1622417190251 66.882341041934 0.9488579969526 -30.69567673752 0.9488579969526 -30.69567673752 0.1626484749355 68.717002698544
1.980000000000000 0.1565397566049 66.512614354496 0.9500262139728 -31.24358854202 0.9500262139728 -31.24358854202 0.1569564334244 68.394042509499
1.990000000000000 0.1508970644644 66.159838313756 0.9511432106294 -31.78799869218 0.9511432106294 -31.78799869218 0.1513245103842 68.090724041084
2.000000000000000 0.1453130301120 65.825228709633 0.9522104470923 -32.32897411484 0.9522104470923 -32.32897411484 0.1457521762386 67.808516431499
2.010000000000000 0.1397870725226 65.510179245494 0.9532293364080 -32.86658034000 0.9532293364080 -32.86658034000 0.1402389438354 67.549098850578
2.020000000000000 0.1343186468195 65.216292295958 0.9542012461199 -33.40088152779 0.9542012461199 -33.40088152779 0.1347843750088 67.314396349913
2.030000000000000 0.1289072498572 64.945416321307 0.9551274998337 -33.93194049563 0.9551274998337 -33.93194049563 0.1293880884330 67.106623326021
2.040000000000000 0.1235524269533 64.699691665486 0.9560093787286 -34.45981874554 0.9560093787286 -34.45981874554 0.1240497691161 66.928336525472
2.050000000000000 0.1182537801012 64.481606991933 0.9568481230169 -34.98457649142 0.9568481230169 -34.98457649142 0.1187691799884 66.782500092401
2.060000000000000 0.1130109780921 64.294069325062 0.9576449333517 -35.50627268632 0.9576449333517 -35.50627268632 0.1135461761782 66.672565924931
2.070000000000000 0.1078237691247 64.140491640468 0.9584009721865 -36.02496504963 0.9584009721865 -36.02496504963 0.1083807227638 66.602573642644
2.080000000000000 0.1026919966769 64.024903293503 0.9591173650852 -36.54071009410 0.9591173650852 -36.54071009410 0.1032729170549 66.577275879342
2.090000000000000 0.0976156196961 63.952090455421 0.9597952019873 -37.05356315265 0.9597952019873 -37.05356315265 0.0982230168296 66.602296558466
2.100000000000000 0.0925947385651 63.927776379637 0.9604355384266 -37.56357840496 0.9604355384266 -37.56357840496 0.0932314764742 66.684332506804
2.110000000000000 0.0876296288768 63.958855111857 0.9610393967072 -38.07080890376 0.9610393967072 -38.07080890376 0.0882989937199 66.831412544144